default_name
 24961
  25.7272365  22.0127330  40.9491860  25.8966627  22.5683816  40.1229593
  26.2071700  22.4372649  41.7299144  24.7385506  21.8157383  41.0107731
  26.3808297  20.6891375  40.7583569  27.1336341  20.5138710  41.5269051
  25.3548328  19.5817400  40.8259398  24.5991197  19.7384211  40.0562329
  25.8445530  18.6215954  40.6634691  24.8797146  19.5852950  41.8069338
  27.1267643  20.7218207  39.4284621  28.3591302  20.5561794  39.3881226
  26.3527916  20.9645245  38.3686965  25.3583013  21.1036760  38.4769804
  26.9214631  21.0361059  37.0202075  27.4061636  20.0923356  36.7702830
  26.1344072  21.2429527  36.2950477  27.9591664  22.1593662  36.9628387
  29.1280291  21.9028648  36.5854847  27.5129264  23.3481775  37.3605103
  26.5464582  23.5112765  37.6043079  28.4378242  24.5244659  37.2986740
  29.0737769  24.5397942  36.4135590  27.5724824  25.8473088  37.3485954
  26.9609727  25.8228023  38.2505687  28.4622402  27.1178833  37.3619210
  29.0737465  27.1433285  36.4599714  27.8295485  28.0047936  37.3964486
  29.1095351  27.0996109  38.2387189  26.5825338  25.8362580  36.1733611
  27.1937304  25.9207398  35.2748054  26.1086178  24.8550073  36.1988618
  25.4923629  26.9352647  36.1606863  25.9655444  27.9168577  36.1347163
  24.8624164  26.8127369  35.2796338  24.8804330  26.8511264  37.0587745
  29.5284423  24.4849212  38.3442945  30.7042480  24.8011654  38.0408879
  29.1590480  24.1385709  39.5761619  28.1888175  23.9398215  39.7742800
  30.1252776  24.0805348  40.6876200  30.5048898  25.0771620  40.9128485
  29.4593364  23.4781131  42.0072621  29.0934491  22.4731061  41.7970536
  30.5007213  23.4188467  43.1484554  30.8667487  24.4236149  43.3595582
  30.0360333  23.0063762  44.0440180  31.3346207  22.7847066  42.8474923
  28.3493039  24.3624489  42.3229391  27.9055916  24.0490289  43.1144489
  31.3379319  23.2473351  40.3037529  31.1463001  22.1001626  39.8426081
  32.5286900  23.8042839  40.4850376  32.6375541  24.7388183  40.8523159
  33.7538495  23.0355739  40.1390215  34.0550832  22.4265536  40.9913429
  33.5498759  22.3892843  39.2853214  34.8943492  23.9881787  39.7804725
  34.8491093  25.1967453  40.0656867  35.9243285  23.3627297  39.2326100
  35.8810018  22.3607454  39.1132382  37.1371965  24.0661350  38.7880875
  37.1282133  25.1073521  39.1104001  38.4437702  23.3622368  39.3741000
  38.4584334  22.3254302  39.0380682  39.7163387  24.0674899  38.9052786
  39.7026105  25.1042943  39.2413556  40.5872343  23.5622375  39.3228429
  39.7678946  24.0395515  37.8168568  38.2749110  23.4207548  40.8235158
  39.0310696  23.0115155  41.2505376  37.1737296  24.0266483  37.2539037
  37.1405937  22.9155208  36.7055073  37.3063112  25.1733854  36.6337165
  37.4068507  26.0239124  37.1690621  37.3357356  25.2665154  35.1526486
  37.3136083  24.2705316  34.7103525  36.1026848  26.0502425  34.6629727
  36.1287757  27.0980476  34.9621769  36.1241033  25.9828824  33.5752669
  34.7909722  25.5195737  35.0940835  34.1636715  25.6698312  36.3023081
  34.7171193  26.1952397  37.0806019  32.9133831  25.0965530  36.2641509
  32.2247111  25.1354460  37.0019298  32.7334653  24.5067746  35.0319123
  31.6545910  23.7907286  34.5335154  30.7949074  23.6059560  35.1776441
  31.7493132  23.3512772  33.2215169  30.9190486  22.7960827  32.7850312
  32.8760905  23.5995898  32.4456787  32.9382886  23.2302160  31.4220607
  33.9486695  24.3187245  32.9431650  34.8378007  24.4330336  32.3231006
  33.8691747  24.7937677  34.2519475  38.5900409  26.0104689  34.6854813
  39.1775663  26.7790140  35.4533240  38.9043972  25.7910622  33.4009274
  38.3182397  25.2053468  32.8234707  40.0796472  26.4267611  32.7836428
  40.4389453  27.2351278  33.4204688  41.2279169  25.3901172  32.5995909
  40.9249202  24.7185374  31.7963022  42.1151660  25.9445065  32.2937450
  41.5406402  24.5834772  33.8393284  40.8594378  23.4140373  34.1252242
  40.0980262  23.0753014  33.4226504  41.1258642  22.6702919  35.2811830
  40.5697584  21.7612374  35.5102420  42.1177795  23.1058077  36.1353634
  42.4427200  22.4050224  37.2708151  41.9147233  21.6115617  37.3858773
  42.8244947  24.2750387  35.8821333  43.5972985  24.6198023  36.5691653
  42.5337685  25.0128921  34.7281253  43.0824822  25.9303177  34.5151851
  39.7469158  26.9611384  31.3868777  39.0656989  26.2590221  30.6245214
  40.2800929  28.1490668  31.0701975  40.7349245  28.7380769  31.7530551
  40.0169335  28.7105404  29.7181485  39.1834942  28.1518341  29.2923252
  39.6795261  30.1879377  29.6800637  39.3343418  30.4211099  28.6728012
  38.8820557  30.3945973  30.3938093  40.8663968  31.0806243  30.0057300
  41.9962699  30.5837958  30.0930982  40.6090408  32.3705871  30.2039016
  41.3636760  33.0050817  30.4230869  39.6601854  32.7095940  30.1342699
  41.1917938  28.3050836  28.8149187  42.0581533  27.5417497  29.2567336
  41.1806905  28.8697668  27.6134864  40.3908633  29.4404567  27.3478072
  42.2074229  28.5884856  26.6026855  42.3926641  27.5143863  26.5929117
  41.8103740  29.0303146  25.1883969  42.6120392  28.7238256  24.5164619
  40.8953695  28.4983060  24.9279479  41.5830586  30.5171781  25.0549593
  42.4928722  30.9778214  25.4398589  41.4977145  30.7193530  23.9872778
  40.4132365  31.1223875  25.7487100  39.4462363  30.4871668  26.1754301
  40.4800175  32.4683998  25.8662488  39.7318378  32.9701048  26.3229988
  41.2777554  32.9655598  25.4967254  43.5725930  29.1563064  26.9614506
  44.5831856  28.5565983  26.5174273  43.6086763  30.2014393  27.7455375
  42.7299293  30.6045367  28.0377970  44.8454977  30.8585656  28.1634224
  45.5856821  30.8236952  27.3640412  44.5476727  32.3187816  28.4885786
  43.8572086  32.3103387  29.3319571  45.5227665  32.6743618  28.8215274
  44.0150786  33.2414670  27.4087263  43.1749934  32.7609028  26.9073124
  43.5462991  34.5724442  28.0370292  44.3860077  35.0538493  28.5382651
  43.1652617  35.2295433  27.2552798  42.7563628  34.3744803  28.7615369
  45.1601892  33.5745410  26.4488110  45.5380421  32.6556809  26.0004553
  44.7960622  34.2379714  25.6643540  45.9629417  34.0674559  26.9971925
  45.4746800  30.1193879  29.3649040  46.6390346  30.4005216  29.6519566
  44.7191227  29.2433950  29.9763796  43.7783077  29.0651054  29.6551642
  45.2175402  28.4853460  31.1580004  44.8117924  27.4744857  31.1176350
  46.3055306  28.4418476  31.1081591  44.8081000  29.1304452  32.4715699
  45.3034676  28.7010440  33.5579683  43.9241752  30.1024281  32.4108797
  43.5783261  30.4193697  31.5164325  43.4145255  30.7804688  33.6537179
  44.2502992  31.0741454  34.2888050  42.6249183  32.0295736  33.2791398
  41.8675992  31.7814785  32.5354894  42.1422002  32.4435428  34.1644153
  43.5434242  33.0094782  32.7260260  43.0586515  33.8024025  32.4854719
  42.5272111  29.7617405  34.3822478  41.9462482  28.9198968  33.6685369
  42.4697632  29.8304949  35.6935596  43.0132081  30.5432968  36.1590493
  41.6636389  28.9191489  36.5182468  41.2477078  28.1145957  35.9117860
  42.5534063  28.2762784  37.6779988  42.8253051  29.0556239  38.3898919
  41.7729962  27.1705111  38.4034178  41.5011345  26.3905282  37.6922094
  42.3941843  26.7432421  39.1906063  40.8689205  27.5917384  38.8430941
  43.7357598  27.7679643  36.9890707  44.3273533  27.3612771  37.6264269
  40.4825616  29.6365070  37.1716368  40.6875065  30.6801410  37.8462683
  39.3336607  29.0466435  37.0406869  39.3301660  28.1808309  36.5206334
  38.0340175  29.5703157  37.5503937  38.1650565  30.5117009  38.0839871
  37.1386840  29.8189656  36.3306900  37.5821595  30.6406279  35.7682847
  37.2007791  28.9025001  35.7438892  35.6846583  30.1359636  36.4763627
  35.2523907  31.1017462  37.3761169  35.9897074  31.6303043  37.9803439
  33.8850819  31.4014573  37.5137688  33.5463270  32.1602450  38.2191673
  32.9489570  30.7057504  36.7245268  31.8848153  30.9078326  36.8464499
  33.3804641  29.7550449  35.7834313  32.6639465  29.2397135  35.1437936
  34.7419129  29.4738011  35.6731586  35.0884366  28.7302765  34.9553896
  37.4617560  28.5313332  38.5272228  37.0644590  27.4479895  38.0483663
  37.4638278  28.8647584  39.7932821  37.8576458  29.7510904  40.0751018
  36.9347828  27.9577131  40.8518785  36.6655436  26.9716656  40.4733026
  38.0054534  27.8076086  41.9799650  38.1069339  28.7733133  42.4751585
  37.6273993  26.7341244  43.0203167  37.5261882  25.7679873  42.5259120
  38.4067934  26.6731172  43.7798716  36.6815908  27.0013467  43.4916316
  39.4050006  27.5029260  41.3466711  39.3301974  26.6097811  40.7263507
  39.7103946  28.3483354  40.7301348  40.4612009  27.2695110  42.4668218
  40.1567055  26.4239039  43.0835317  41.4303732  27.0585521  42.0148256
  40.5369010  28.1624581  43.0873175  35.6262929  28.5713752  41.3765707
  35.6707804  29.6526263  41.9966368  34.5167499  27.8883283  41.1186806
  34.5434198  26.9969332  40.6445468  33.2098892  28.4358727  41.4967856
  33.2076363  29.2730888  42.1947564  32.5724483  28.9171463  40.1255180
  33.2662317  29.5632530  39.5876426  32.2882681  27.6721624  39.2926304
  31.5941461  27.0257395  39.8296899  31.8479732  27.9647842  38.3394183
  33.2192271  27.1346113  39.1124754  31.3580450  29.7790192  40.3342972
  31.6341411  30.6639779  40.9076392  30.9574109  30.0835473  39.3674184
  30.6010495  29.2151645  40.8793903  32.2687355  27.4882794  42.1985737
  32.3284793  26.2602640  42.0491254  31.3712557  28.1065351  42.9624133
  31.4400642  29.1123608  43.0230725  30.2945962  27.4386488  43.6971283
  30.3516290  26.3865150  43.4180926  30.3984172  27.5512068  45.2841639
  30.4271674  28.6055604  45.5591403  29.1880512  26.8730530  45.9683697
  29.1589042  25.8184962  45.6942165  29.2836153  26.9641411  47.0503445
  28.2675742  27.3580020  45.6433355  31.6203700  26.8223152  45.6499976
  31.7390970  26.8542776  46.6020914  28.9666616  28.1069432  43.2742081
  28.8423275  29.3239235  43.3495597  28.0361343  27.2918418  42.8210131
  28.2232976  26.3017920  42.7512241  26.7271899  27.7848786  42.3795685
  26.6997306  28.8657395  42.2414202  26.3633661  27.1134183  41.0544771
  26.3776840  26.0306776  41.1792468  25.3665224  27.4301374  40.7477332
  27.0862285  27.4002131  40.2907244  25.7159185  27.4552613  43.4812869
  25.5320793  26.2658921  43.7796944  25.1528805  28.4945030  44.0484199
  25.4203759  29.4206876  43.7472096  24.1385778  28.3707016  45.1147600
  24.4145030  27.5752871  45.8070607  24.0475753  29.3104296  45.6594887
  22.7902792  28.0315311  44.4792633  22.4946666  28.3555081  43.3246178
  21.9645404  27.3750059  45.2858785  22.2709171  27.1484643  46.2212456
  20.6464497  26.9030280  44.8531493  20.7627300  26.2168519  44.0142569
  19.9906303  26.1500586  46.0138577  19.8592267  26.8265082  46.8583984
  19.0187750  25.7704409  45.6984405  20.6263468  25.3164255  46.3122194
  19.7686599  28.0501059  44.3709499  18.9021184  27.8274429  43.5114686
  19.9792125  29.1904569  44.9164598  20.7528103  29.1228373  45.5622719
  19.3354825  30.4673111  44.7542464  18.2514421  30.3818194  44.6791009
  19.6893738  31.2705781  46.0712544  19.1008365  32.1878150  46.0512682
  19.4098722  30.6790843  46.9430996  21.1582848  31.6166106  46.1476424
  22.0255570  30.7612282  45.9183722  21.5435621  32.7744632  46.4747262
  19.7389050  31.3405529  43.5753074  19.1274388  32.4363141  43.4279726
  20.7749172  30.9587261  42.8423887  21.2798822  30.1073873  43.0432168
  21.2140914  31.7748587  41.7112655  21.2727955  31.1264623  40.8370600
  20.4592110  32.5429854  41.5432295  22.5543085  32.4401483  41.9208220
  22.9907016  33.1428263  40.9885690  23.1934991  32.2793350  43.0919819
  22.8303958  31.7368353  43.8626631  24.5036858  32.9526873  43.2619510
  24.4850410  33.9094439  42.7400617  24.7042034  33.2191114  44.7814588
  24.7340933  32.2699073  45.3164526  25.6418837  33.7527476  44.9366623
  23.8773287  33.8216176  45.1574424  25.6808933  32.1611633  42.7582354
  25.7268772  30.9279476  42.7774336  26.7000812  32.8964211  42.2672110
  26.5202101  33.8864376  42.1799580  27.9844779  32.3975419  41.8536648
  27.9909513  31.3186155  42.0085037  28.3305505  32.6863213  40.3757899
  28.2729535  33.7657471  40.2357121  29.3542383  32.3525644  40.2061735
  27.3930333  31.9898586  39.3772574  26.3710532  32.3511783  39.4917368
  27.8943065  32.3266261  37.9896430  28.9161392  31.9651845  37.8742449
  27.2549168  31.8504834  37.2462926  27.8734283  33.4071189  37.8475169
  27.3988275  30.4681237  39.5873912  27.0641188  30.2392580  40.5991669
  26.7273716  29.9989597  38.8682713  28.4091093  30.0848713  39.4440485
  29.0250800  33.0876433  42.7801553  28.9258125  34.3205701  42.9647285
  29.9060353  32.2905487  43.3151431  29.9062553  31.2933767  43.1546838
  30.9650406  32.8672474  44.2052586  31.0980108  33.9094868  43.9151637
  30.4922059  32.8188572  45.7144288  31.2507943  33.3369283  46.3011539
  29.1257060  33.4555294  45.9725364  28.3664782  32.9376546  45.3864662
  28.8821084  33.3772292  47.0320780  29.1532920  34.5060833  45.6832680
  30.3520361  31.3780482  46.0342144  30.0647733  31.2788631  46.9448420
  32.1983991  32.0095400  43.9970694  32.0776754  30.7827291  43.7947059
  33.3812087  32.6429777  44.0699462  33.4585606  33.6358394  44.2382957
  34.6152600  31.8682873  43.8991561  34.7332454  31.2197462  44.7672420
  34.5130358  31.2581970  43.0016934  35.8497891  32.7430476  43.7642289
  35.8804649  33.9215530  44.1430547  36.8584448  32.1278436  43.1426552
  36.7670141  31.1485650  42.9129748  38.1500579  32.7869783  42.8876198
  38.0340358  33.8701715  42.9240976  39.2537829  32.3651443  43.9230376
  40.1365769  32.9867359  43.7733751  38.7350975  32.5453611  45.3726211
  37.8525216  31.9236790  45.5231894  39.5124018  32.2485175  46.0767383
  38.4751183  33.5907929  45.5387047  39.5983791  30.9924908  43.6550063
  40.2733632  30.7052448  44.2742692  38.6052676  32.5475821  41.4477123
  38.2602094  31.5313147  40.8220434  39.3774680  33.5035540  40.9606206
  39.6642015  34.2678235  41.5554107  39.9160267  33.4470180  39.5790233
  39.6860545  32.4861169  39.1187179  39.2597564  34.5746772  38.7305493
  38.2029361  34.5946365  38.9966913  39.7200245  35.5249905  39.0010265
  39.4010578  34.3512519  37.2307633  38.4337728  33.5968986  36.5821187
  37.6233633  33.1777846  37.1785073  38.4780945  33.3664839  35.1931753
  37.7035024  32.8009199  34.6752503  39.5620960  33.8718559  34.4835241
  39.5878397  33.6166161  33.1311262  38.8324786  33.1055376  32.8314131
  40.5485778  34.6065658  35.1151212  41.3897565  34.9955420  34.5413473
  40.4676828  34.8494148  36.4828095  41.2423316  35.4337831  36.9793304
  41.4226974  33.7469360  39.6102266  41.8245168  34.7111302  40.2884269
  42.1669892  32.9565998  38.8692946  41.7258643  32.2263887  38.3286467
  43.6324484  33.1393690  38.7397161  43.9243733  34.0201594  39.3116317
  44.4138198  31.9635261  39.2396373  44.1342011  31.1945380  38.5195193
  45.4374598  32.2851968  39.0478325  44.3163472  31.4006390  40.6421195
  44.5773839  32.2111936  41.3225326  43.3061725  31.0544876  40.8608097
  45.3012056  30.2454813  40.8245157  46.4413274  30.3251190  40.3990227
  44.7478239  29.2806355  41.3797664  43.9386635  33.2591995  37.2300824
  43.6421130  32.3113992  36.4727387  44.4749224  34.3812914  36.8554706
  44.6297236  35.0764510  37.5716333  44.7879838  34.7335266  35.4630511
  44.1459830  34.1792327  34.7784399  44.5508550  36.2311797  35.2517529
  43.5219042  36.4663762  35.5238600  45.2325047  36.7893766  35.8935237
  44.7745804  36.5889652  33.9038562  44.6208711  37.5300556  33.7928513
  46.1940219  34.3511189  35.0428903  47.1669177  34.5319994  35.7973954
  46.2935034  33.8688569  33.8141479  45.4492541  33.7562702  33.2713159
  47.5662262  33.4477020  33.2167114  48.2382421  33.1065436  34.0041787
  47.2898400  32.2708136  32.2611076  46.6254595  32.5993691  31.4618893
  48.2291983  31.9223751  31.8318094  46.8190845  31.4570529  32.8127252
  48.2663729  34.5705809  32.4694749  49.5041759  34.4748769  32.2487907
  47.5195592  35.5789053  32.0827098  46.5382947  35.5723642  32.3218261
  48.0540023  36.7447790  31.3420107  49.1416379  36.7994259  31.2955178
  47.4961829  36.6593487  29.8865942  47.9569238  37.4555436  29.3018800
  47.7839907  35.3271632  29.2369185  47.3231448  34.5304562  29.8208535
  47.3753651  35.3192948  28.2264416  48.8615370  35.1686252  29.1937746
  45.9945338  36.9594344  29.9087882  45.8294044  37.9606004  30.3069100
  45.5969528  36.9017809  28.8955237  45.4869684  36.2298034  30.5397532
  47.5653598  38.0473940  31.9883703  46.6766506  38.0272809  32.8587998
  48.2222548  39.1192618  31.5417485  48.9652322  39.0495395  30.8611437
  47.8624522  40.4565506  32.0497425  48.0790816  41.1981493  31.2808457
  46.7972711  40.4735778  32.2803911  48.6504937  40.8045395  33.3125799
  49.4982009  40.0443654  33.8160965  48.3496345  41.9745872  33.8143974
  47.6544560  42.5073271  33.3113920  48.9505334  42.5744517  35.0334019
  50.0281523  42.4166356  35.0773421  48.6789608  44.0827119  34.9402694
  49.1938336  44.3836114  34.0278743  47.6038253  44.2021123  34.8063769
  49.1227766  44.9724710  36.0541550  48.6356112  46.1277403  36.1729143
  50.0667262  44.5532713  36.8973494  50.3685228  45.1534155  37.6515678
  50.4756504  43.6375007  36.7779922  48.2899072  41.9399329  36.2546443
  47.5320442  42.6799306  36.9395152  48.5026009  40.6526516  36.4775868
  49.0563662  40.1293895  35.8145332  47.9118702  39.9318655  37.6148495
  47.7106544  40.6827877  38.3788700  46.5965311  39.2480060  37.2438828
  46.7831625  38.4869657  36.4861979  46.1671045  38.7802841  38.1298452
  45.8998171  39.9883058  36.8506335  48.8588211  38.8854992  38.2098138
  49.6374554  38.2181360  37.5058173  48.6586403  38.7303952  39.5245462
  47.9887276  39.3088871  40.0110270  49.4277761  37.7485710  40.3037416
  49.6369364  36.8977928  39.6552606  50.7322574  38.2709044  40.8487210
  51.2781283  37.3620543  41.1019313  51.1940954  38.7416239  39.9808334
  50.7726424  39.2283558  42.0238877  50.2589621  40.1438086  41.7303241
  50.2061730  38.7309699  42.8111735  52.1511294  39.5672034  42.5341385
  52.9072635  38.7298394  43.0212513  52.4218362  40.7725455  42.3592578
  48.5301332  37.2841332  41.4694365  47.9166233  38.1006923  42.1726797
  48.4189606  35.9805452  41.6006417  48.8339170  35.3985803  40.8870399
  47.6296984  35.3386962  42.6419505  47.9441602  34.3007210  42.7506726
  47.8129805  36.0456679  43.9793958  48.8278811  36.4382363  44.0423723
  47.1008542  36.8676769  44.0520411  47.5894568  35.1225026  45.0565109
  47.7066246  35.5748274  45.8951251  46.1546844  35.2286806  42.2376360
  45.7665956  35.3760251  41.0671764  45.3482816  34.9732241  43.2507823
  45.7641858  34.8668140  44.1650032  43.9071787  34.7844165  43.1200988
  43.6722207  34.4678456  42.1038917  43.3973284  33.7097670  44.1012523
  44.1352187  33.6484028  44.9011595  42.4556803  34.0827301  44.5041138
  43.1835457  32.3438464  43.5113924  42.1775673  32.0421358  43.8030755
  43.2247787  32.4713316  42.4296579  44.1508457  31.2993327  43.9225320
  44.2571648  30.5601040  43.1285949  45.1204114  31.7529629  44.1281080
  43.6822109  30.6213941  45.1363564  43.2408892  29.7157008  45.0652638
  43.7616163  31.2018492  46.3432905  44.3764497  32.3849549  46.4407044
  44.7662882  32.8174975  45.6154572  44.4483029  32.8408275  47.3391013
  43.3096210  30.6136196  47.4586394  42.8893655  29.6966275  47.4075430
  43.3911320  31.0897698  48.3456207  43.1264249  36.0646776  43.3446073
  43.5413470  36.9375255  44.1264521  41.9727424  36.1161352  42.6546017
  41.6798201  35.3666291  42.0442440  41.0912126  37.3043405  42.7836538
  41.4462333  37.9349971  43.5987193  41.0881049  38.1341500  41.4839967
  40.7340155  37.5068607  40.6659332  40.3893419  38.9561119  41.6395890
  42.4543759  38.6916366  41.1378576  43.3767296  37.9147450  40.4118327
  43.0976758  36.9169688  40.0732014  44.6440983  38.4185199  40.1257885
  45.3819618  37.7926701  39.6238210  44.9777212  39.7029818  40.5168323
  46.2130981  40.2461099  40.2197499  46.7796490  39.6445293  39.7311596
  44.0680649  40.5006427  41.1848881  44.3213057  41.5233824  41.4641247
  42.8114457  39.9812660  41.5018359  42.0904376  40.5921547  42.0450325
  39.6663854  36.7942425  43.0781744  39.3187682  35.7022067  42.6239219
  38.9544118  37.6062200  43.8195347  39.3395470  38.4765502  44.1576109
  37.5531435  37.2575392  44.1989048  37.4168857  36.2159743  44.4898956
  37.1686371  38.1671049  45.4069244  37.4136178  39.1982418  45.1522868
  35.6821530  38.0648937  45.7398728  35.4364915  37.0340590  45.9950808
  35.4534855  38.7125671  46.5862361  35.0937104  38.3749778  44.8763423
  38.0128142  37.8118598  46.6362978  39.0685650  37.9560579  46.4067344
  37.7313998  38.4559654  47.4693846  37.8395515  36.7706116  46.9081120
  36.6293354  37.4976903  43.0099578  36.7948254  38.4560978  42.2570341
  35.5965617  36.6224042  42.8903845  35.4837010  35.8264358  43.5017732
  34.6204344  36.8184077  41.8211525  34.7298770  37.8149620  41.3933662
  34.8427759  35.7773592  40.7073234  34.3417055  36.1800519  39.8270585
  35.9202795  35.7762862  40.5427485  34.3740789  34.3764798  40.9507904
  34.5114000  34.1742604  42.0130291  32.9031716  34.1228504  40.5657688
  32.7651663  34.3244284  39.5034978  32.6463530  33.0842728  40.7743392
  32.2564131  34.7802507  41.1468271  35.2475854  33.4246894  40.0933031
  36.2926977  33.5282640  40.3850429  34.9270081  32.3950124  40.2517228
  35.1379791  33.6807539  39.0394927  33.2096071  36.6776910  42.4394066
  33.0676026  35.9577644  43.4490409  32.2781393  37.3070490  41.7538534
  32.5346948  37.9430333  41.0123667  30.8686027  37.2221235  42.1383990
  30.6247457  36.2337013  42.5278274  30.4275122  38.3055530  43.1995049
  31.1586118  38.2508793  44.0061055  30.3317918  39.7325932  42.7012250
  29.6004916  39.7881485  41.8948670  30.0208046  40.3832785  43.5185344
  31.3050937  40.0548272  42.3311585  29.1512045  37.8399166  43.7272402
  28.8296466  38.4629490  44.3830079  30.0130692  37.2488762  40.8693538
  30.3803808  37.9696305  39.9170259  28.9033078  36.5384886  40.8793544
  28.6284247  35.9901963  41.6817970  28.0111199  36.5318355  39.6746326
  27.8903796  37.5582818  39.3283250  28.4886661  35.9394207  38.8941880
  26.6346808  35.9431152  39.9730427  26.2886943  35.7186006  41.1180993
  25.8974105  35.7252196  38.8707669  26.2626838  35.9339933  37.9525685
  24.5316023  35.1500014  38.9712510  24.4182364  34.6303895  39.9226977
  23.4612050  36.2752450  38.8889010  23.5443319  36.7183809  37.8965202
  22.4884929  35.7941103  38.9910806  23.6009107  37.3568824  39.9370235
  24.6388630  37.6894278  39.9240066  22.9520692  38.1812804  39.6412624
  23.2372691  36.9063870  41.3227666  23.8032209  36.0090042  41.5727700
  23.4758049  37.6960165  42.0352870  21.8062120  36.6018014  41.4206864
  21.2301661  36.8853507  40.6410261  21.2304010  35.9819219  42.4390616
  21.9423066  35.6491050  43.5223281  22.9264846  35.8721341  43.5641798
  21.4921461  35.1764207  44.2930581  19.9265642  35.6826509  42.4189486
  19.3668134  35.9313489  41.6158742  19.5079798  35.2093969  43.2069311
  24.2820103  34.1829032  37.8193944  24.8959697  34.3110110  36.7372205
  23.3063911  33.2902818  38.0267138  22.8171887  33.2182536  38.9073910
  22.9531552  32.3248455  36.9370198  23.1033795  32.8090958  35.9721191
  23.8058471  31.0662754  36.9872082  23.7218096  30.5974015  36.0068031
  24.8352873  31.3856122  37.1496180  23.4138321  30.0761363  38.0520687
  23.7411769  30.2770873  39.3896613  24.2842149  31.1797992  39.6695190
  23.3862314  29.3470388  40.3647278  23.6416544  29.5184830  41.4104179
  22.6859192  28.2071394  39.9999646  22.3549915  27.3082183  40.9683801
  22.6551190  27.5702743  41.8417928  22.3424106  27.9690869  38.6724323
  21.8007909  27.0718902  38.3727881  22.7080685  28.9112798  37.7183124
  22.4463935  28.7567649  36.6715309  21.4645869  31.9822809  37.0829819
  20.8850046  32.2112622  38.1514584  20.9207822  31.4227913  36.0158428
  21.4641665  31.3240496  35.1702171  19.4865194  31.0139638  35.9865961
  18.8599139  31.7253055  36.5246088  19.0482748  30.9890446  34.5148615
  19.1579231  31.9996804  34.1215528  19.7103275  30.3145788  33.9718309
  17.5969515  30.5286461  34.3418706  16.8776703  30.3590989  35.3274417
  17.2586158  30.3485258  33.1476317  19.3557883  29.6837877  36.7119532
  19.7940694  28.6617305  36.1892547  18.8040646  29.7090855  37.9336385
  18.5478484  30.5972281  38.3406462  18.6407121  28.5043030  38.7420938
  19.5115060  27.8620170  38.6106179  18.4990003  28.8426048  40.2423230
  18.0496931  27.9956779  40.7609144  19.4855763  29.0422440  40.6605478
  17.6858571  29.9736615  40.4031920  17.6025438  30.1775783  41.3375777
  17.4808288  27.6025252  38.3406777  17.2776345  26.5619501  39.0206435
  16.7680510  27.9749270  37.3076634  16.9945112  28.8155240  36.7955972
  15.6146596  27.1403940  36.8313808  15.6562932  26.0709289  37.0378029
  14.3748941  27.7204314  37.5092798  14.3144640  28.7892331  37.3040702
  13.4838259  27.2258133  37.1226913  14.4404099  27.5607650  38.5855296
  15.5314055  27.3059085  35.3084915  14.6028080  27.9460277  34.7988416
  16.5024191  26.7247996  34.6301147  17.6421556  25.9794096  35.2250604
  17.2606675  25.2436340  35.9330161  18.2968196  26.6783501  35.7456335
  18.3128256  25.3423539  34.0315547  17.9529572  24.3197034  33.9185081
  19.3917177  25.3322825  34.1864476  17.9489624  26.1877510  32.8408539
  17.8493848  25.5379704  31.9713894  18.6830361  26.9655244  32.6303689
  16.6073559  26.8173836  33.1709460  16.6049221  27.8690040  32.8842635
  15.4364855  26.1025145  32.4943909  14.6991505  25.3410022  33.1562565
  15.3163894  26.3749276  31.2055473  15.9180168  27.0695325  30.7864198
  14.2620140  25.7710791  30.3736335  13.3221515  25.7963621  30.9251029
  14.0779106  26.5196139  29.0678148  15.0081246  26.4952451  28.5001810
  13.2857013  26.0477954  28.4865300  13.8073806  27.5546316  29.2767432
  14.5974152  24.2959779  30.1599153  15.7730194  23.8894015  30.2493387
  13.5619486  23.5306109  29.8728174  12.6510582  23.9668857  29.8793257
  13.6369682  22.0922130  29.6586013  14.6002001  21.6764798  29.9543196
  12.4910561  21.3431383  30.4660180  12.4204160  20.3387510  30.0485059
  12.7157388  21.2526707  31.9729408  12.7860228  22.2567465  32.3912607
  11.8809325  20.7250476  32.4342557  13.6409514  20.7115187  32.1710238
  11.2295073  22.0435118  30.1651833  10.5081519  21.6198533  30.6360976
  13.6114823  21.6816993  28.1940850  13.2114911  20.5220436  27.9033089
  14.0602954  22.5332879  27.3131777  14.2847702  23.4655972  27.6302105
  14.0860703  22.2627153  25.8646242  13.6012820  21.3095318  25.6536249
  13.3387064  23.3698158  25.1116557  13.3250858  23.1013050  24.0553339
  12.3163730  23.4207234  25.4862794  14.0103993  24.7284758  25.2818687
  14.9919406  24.8454648  26.0300393  13.5089753  25.6679737  24.6497716
  15.4640556  21.9935045  25.3041441  15.6485157  22.0504518  24.0671556
  16.4276336  21.7129444  26.1667225  16.2111655  21.6927455  27.1530454
  17.7998684  21.4292286  25.7527467  18.2653528  20.7956998  26.5077730
  17.7717411  20.8985818  24.8010523  18.6327457  22.7021735  25.5885984
  19.7518609  22.6048675  25.0211208  18.1206070  23.8115955  26.0605578
  17.2103935  23.7777140  26.4969783  18.8146389  25.1118088  25.9900866
  19.2581894  25.2373696  25.0023636  17.8428449  26.2577343  26.2362660
  17.3868970  26.0850667  27.2111489  18.4322476  27.1740646  26.2685671
  16.8324283  26.3833177  25.2607744  16.2626793  27.1231286  25.4836325
  19.9236634  25.1845185  27.0586013  19.8885214  24.4705073  28.0644358
  20.8675526  26.0988477  26.8225073  20.8491630  26.6851866  26.0003347
  21.9973197  26.2743111  27.7974462  22.3667081  25.3047407  28.1314892
  22.8123170  26.8349864  27.3397106  21.4730926  27.0562963  29.0137316
  20.3172825  27.4766930  29.0111540  22.3381186  27.2379688  30.0181076
  23.2945007  26.9202553  29.9510955  21.9241588  27.9835598  31.2436431
  20.8472586  28.1314117  31.3244206  22.4221350  27.1627044  32.5150869
  23.4753064  26.9303014  32.3572289  22.2563476  27.9198647  33.8552942
  21.2033048  28.1522182  34.0140782  22.6174863  27.2958865  34.6728083
  22.8313635  28.8453223  33.8238998  21.7041179  25.9100870  32.5438287
  21.9876759  25.3960801  33.3034286  22.6330010  29.3466627  31.2533563
  23.8804577  29.3102033  31.3195500  21.8815998  30.4376063  31.1917420
  20.8736062  30.4028558  31.1384459  22.5446858  31.7732175  31.1774431
  23.3112412  31.8220440  30.4040686  21.4637475  32.8275051  30.8668758
  20.6936464  32.7970078  31.6376639  21.9173061  33.8184420  30.8461661
  21.0148956  32.6135879  29.8968909  23.2166942  32.0891937  32.5145062
  22.7171798  31.7167355  33.5788978  24.3673015  32.7879305  32.4439674
  24.7468384  33.0017337  31.5327379  25.1428275  33.1754487  33.6297996
  24.4794226  33.5516011  34.4085823  25.8908461  31.9582028  34.1715466
  26.5021181  32.3941526  34.9617324  25.1016795  31.3518273  34.6160965
  26.7540766  31.0910589  33.2889523  26.0755435  30.6406080  32.5645300
  27.8822746  31.7696348  32.5636461  28.5615233  32.2199591  33.2874748
  28.4234683  31.0365122  31.9655313  27.4811186  32.5452099  31.9112217
  27.3674210  29.9893574  34.1993744  26.5669766  29.4037764  34.6515726
  28.0023366  29.3353004  33.6017183  27.9634239  30.4557680  34.9838109
  26.0962881  34.3381845  33.3256134  26.3075561  34.6942263  32.1699503
  26.6939558  34.8627383  34.4004518  26.5005711  34.5270584  35.3332008
  27.6736059  35.9718575  34.2385131  28.4180204  35.7079325  33.4873209
  27.1601807  36.8843896  33.9355626  28.3792739  36.2174490  35.5741540
  27.8588393  35.8394743  36.6140117  29.5829098  36.7825954  35.4295370
  30.0307761  36.9324865  34.5367616  30.3622926  37.0754434  36.6717223
  29.6919127  37.5104214  37.4129943  30.9988907  35.8303390  37.2644042
  31.3043531  35.9238619  38.3065392  30.2341546  35.0584102  37.1783533
  32.1936707  35.3353853  36.5107221  33.5095603  35.6477981  36.7457770
  33.7124619  36.3757342  37.5312957  34.3302611  34.9286210  35.8848865
  35.3401761  34.9300046  35.8718708  33.5130462  34.1401380  35.0812221
  33.8597093  33.2372461  34.0893885  34.9138625  33.0848912  33.8577686
  32.8281470  32.5819337  33.4523337  33.0552077  31.9020966  32.6311365
  31.4819593  32.7673923  33.8350515  30.6754648  32.2252477  33.3413457
  31.1464000  33.6491227  34.8551498  30.0970133  33.8012729  35.1076148
  32.1936969  34.3449680  35.4835728  31.3676681  38.1780204  36.3701362
  31.6895948  38.4680780  35.1997176  31.7875206  38.8057718  37.4901635
  31.4704099  38.4634413  38.3859033  32.7551016  39.8810292  37.4703258
  33.1561219  40.0800464  36.4765079  32.1272247  41.2452512  38.0549736
  31.8681742  41.0743075  39.0998522  33.0884710  42.4201901  37.9569025
  33.3476328  42.5920462  36.9122015  32.6145668  43.3130304  38.3647628
  33.9929595  42.1985721  38.5233711  30.8861755  41.4325280  37.3281817
  30.4563931  42.2359355  37.6305453  33.9368299  39.5912505  38.4198898
  33.7799494  39.0195497  39.5135111  35.0611983  40.1555784  38.0056378
  35.0123340  40.6280324  37.1142911  36.3204042  40.1607232  38.7159898
  36.1710986  39.9451285  39.7739718  37.3397007  39.1582782  38.1492626
  37.3648150  39.2940067  37.0680381  38.7635122  39.3351106  38.7234883
  38.7392785  39.1990590  39.8046930  39.4293898  38.5951065  38.2795272
  39.1275430  40.3360703  38.4918358  36.9507333  37.7040508  38.3502303
  35.9991206  37.5102016  37.8552981  37.7193981  37.0595373  37.9237842
  36.8541117  37.4972041  39.4160537  36.9152479  41.5902288  38.5837593
  37.0562659  42.0592834  37.4295316  37.2554815  42.1654081  39.6871426
  37.0996162  41.6684941  40.5525222  37.9436194  43.4931773  39.7454034
  37.9336507  44.1240847  38.8566089  37.4176811  44.3050925  40.9256850
  37.4301551  43.6895241  41.8251404  38.0500821  45.1800560  41.0760445
  36.3966183  44.6264351  40.7200910  39.4129700  43.0765112  40.0145130
  39.6074842  42.2884654  40.9528872  40.3308103  43.4828825  39.1777426
  40.0247094  43.9396128  38.3305124  41.7383481  43.0835852  39.2829697
  41.8072560  42.0609065  39.6537515  42.4239055  43.1540744  37.8903271
  42.5019323  44.1712945  37.5065637  43.4158103  42.7038239  37.9290464
  41.6314851  42.3674221  36.8720285  40.7897135  42.8411923  35.9116643
  40.6637587  43.9227676  35.8623684  40.2625507  41.8042830  35.1856667
  39.6570841  41.8955898  34.3824402  40.7653798  40.6193423  35.6783477
  40.5597034  39.3316007  35.2405283  39.8860270  39.1825641  34.3966996
  41.2201319  38.3029055  35.8973520  41.0891142  37.2582942  35.6150018
  42.1006607  38.6241628  36.9791989  42.6058309  37.8240538  37.5202425
  42.3386347  39.9110226  37.3686439  43.0552650  40.0770400  38.1729945
  41.6589142  40.9510693  36.7277564  42.5505082  43.7051152  40.3888180
  43.6316167  44.2896543  40.0929133  42.1244234  43.5183255  41.6137875
  41.2621865  43.0055067  41.7306792  42.8017091  44.0166448  42.8091569
  43.8397799  44.2442384  42.5668565  42.1292074  45.2962227  43.3471141
  42.2793014  46.0920339  42.6175555  41.0625174  45.1001174  43.4558115
  42.7161252  45.7315596  44.7142038  42.7390666  44.8696470  45.3810479
  43.7305691  46.1006848  44.5633650  41.8661475  46.8269181  45.3326248
  41.7715955  47.6302600  44.6020082  40.8814346  46.4089439  45.5417603
  42.4651300  47.3776846  46.6157831  43.4912240  47.6984114  46.4358776
  41.8755735  48.2259268  46.9636444  42.4542080  46.3090682  47.6504545
  43.0008056  45.5231462  47.3284956  42.8509454  46.6664753  48.5077523
  41.5034575  46.0120336  47.8176164  42.7924154  42.9611804  43.9156222
  41.7610358  42.3614635  44.2566232  43.9905311  42.7293669  44.4565023
  44.8194459  43.1017131  44.0156418  44.1587903  41.7676121  45.5648261
  43.2643534  41.7987931  46.1870074  44.3691894  40.3543825  45.0963485
  44.3715022  39.7068692  45.9731726  43.5382736  40.0813267  44.4458722
  45.6657273  40.1481441  44.3384480  46.5072007  41.0706750  44.3297671
  45.8359603  38.9972363  43.7185142  46.6878318  38.8255472  43.2037932
  45.1137229  38.2924981  43.7611513  45.2350538  42.3408580  46.5062176
  45.6000232  43.5194850  46.3237300  45.6984114  41.5057426  47.4074341
  45.3107012  40.5785512  47.5079142  46.7287936  41.9469344  48.3806316
  46.4319452  42.8948327  48.8294846  46.8916237  40.9086877  49.4932574
  46.9146018  39.9159189  49.0438340  47.8333136  41.0951027  50.0095612
  45.7605583  40.9556714  50.5118912  44.8150603  41.7409195  50.3884406
  45.8755170  40.0948111  51.5270571  45.1644174  40.0659968  52.2437208
  46.6729990  39.4767551  51.5732105  48.0667989  42.2650419  47.7309061
  48.9003076  42.9306433  48.4125351  48.3210602  41.8365722  46.5293596
  47.6104118  41.2757561  46.0815164  49.5854354  42.0140748  45.8480453
  50.3502959  42.3669088  46.5398515  50.0361985  40.6353867  45.2659277
  49.3965610  40.3529595  44.4297471  51.0606398  40.7571708  44.9140915
  49.9915351  39.5548798  46.3211206  50.8876301  39.6179903  47.3949137
  51.6217936  40.4229624  47.4284312  50.8484973  38.6585470  48.4227753
  51.5225885  38.7285834  49.2764718  49.9302938  37.6185713  48.3461086
  49.9524723  36.6816403  49.3537190  50.6230146  36.8600692  50.0171463
  49.0429429  37.5362186  47.2882616  48.3285244  36.7152418  47.2274029
  49.0674543  38.5196981  46.2892700  48.3520468  38.4801243  45.4678528
  49.7007012  43.0612152  44.7703140  50.8190652  43.5797571  44.5146261
  48.6059582  43.2951060  44.0665144  47.7792397  42.7295564  44.1960891
  48.6210793  44.2671337  42.9585151  49.1173494  45.1835335  43.2779309
  49.3590717  43.7086440  41.7813211  49.3743467  44.5448101  41.0822558
  50.3624199  43.5466788  42.1752242  48.8951075  42.4704183  41.0699737
  48.9188157  41.6328338  41.7671043  47.8734927  42.6245553  40.7226308
  49.7941430  42.1657692  39.8809443  49.2692486  41.4870144  39.2087265
  50.0126626  43.0970116  39.3583199  51.0378186  41.5548859  40.2750477
  51.1095030  41.5200773  41.2818988  52.0854249  41.1907484  39.5549221
  52.2345030  41.3743330  38.2453242  51.5044729  41.8291837  37.7159218
  53.0769902  41.0579697  37.7868168  53.0283548  40.4267041  40.1502410
  52.9167381  40.1535168  41.1161657  53.8402360  40.1324777  39.6264296
  47.2191978  44.7715263  42.6193628  46.2098688  44.2243447  43.0640934
  47.2212210  45.8530630  41.8624664  48.0995283  46.2769216  41.5997508
  45.9615356  46.5287958  41.4519851  45.1411842  45.8137122  41.3905176
  45.6108124  47.5889689  42.5079057  45.5983839  47.1112421  43.4875597
  46.3394919  48.3996017  42.5087731  44.2214999  48.1788701  42.2324347
  43.6150358  47.8355923  41.2095253  43.7792190  49.0587893  43.1177250
  42.8713942  49.4834879  42.9928850  44.3517561  49.3011453  43.9136933
  46.1575930  47.0957005  40.0470743  47.0062247  47.9754055  39.8480235
  45.4100269  46.5241688  39.1079287  44.8214864  45.7471724  39.3724964
  45.4607559  46.9054316  37.7013629  46.4535478  47.3187512  37.5235138
  45.2519761  45.7104216  36.7627000  44.2585422  45.2913541  36.9226112
  45.3444170  46.0400938  35.7278710  46.0043926  44.9494039  36.9696315
  44.4531292  47.9941194  37.3959938  44.4675840  48.4919589  36.2402966
  43.6436575  48.3482188  38.3685677  43.6594685  47.8676784  39.2567852
  42.6409435  49.4347100  38.1700445  41.9863778  49.4774974  39.0405685
  43.3173926  50.8301687  37.9852177  43.9521265  50.8870363  37.1009225
  42.5416535  51.5934950  37.9247043  44.1922147  51.1930376  39.1718927
  43.7584889  51.1929681  40.4647608  44.7939376  51.5706265  41.2609983
  44.6732500  51.6349187  42.3423863  45.8241785  51.8033038  40.5021090
  46.7406295  52.0819539  40.8223768  45.4736434  51.6109189  39.1880712
  46.1994351  51.7999022  38.3971142  41.7727514  49.1146499  36.9630362
  41.5886737  49.9626017  36.0393029  41.2011787  47.9053964  36.9841203
  41.4275354  47.2708675  37.7366062  40.3131652  47.4190423  35.8947871
  39.6177502  48.2022074  35.5928773  41.1733441  47.0255936  34.6742809
  40.5192784  46.7654441  33.8420432  41.8029641  47.8690517  34.3909840
  41.9957491  45.9071707  34.9996192  42.5273647  45.6682457  34.2367958
  39.4303370  46.2694070  36.3525196  39.6445273  45.7039328  37.4551793
  38.4239451  45.9173546  35.5301089  38.3137500  46.3319880  34.6157591
  37.5113345  44.7982907  35.9152645  37.9445079  44.0545239  36.5840478
  36.2551983  45.3923819  36.5859877  35.8049910  46.1324225  35.9243585
  35.5367599  44.5965405  36.7824133  36.5351975  45.8684697  37.5256898
  37.0166915  44.1146001  34.6404400  36.8768143  44.8173053  33.6322749
  36.7851153  42.8298429  34.7476374  36.8729615  42.3154057  35.6123551
  36.2709579  42.1060639  33.5387378  36.2599455  42.8306243  32.7244958
  37.2564855  40.9329330  33.1569403  37.3470191  40.2644472  34.0131124
  36.7396331  40.1350626  31.9305997  36.6492792  40.8028332  31.0738511
  37.4415954  39.3352335  31.6947575  35.7644308  39.7058418  32.1604923
  38.5201652  41.6006071  32.7407099  39.1670402  40.9356881  32.4936554
  34.9231514  41.4625928  33.9597551  34.8027724  41.0919487  35.1239015
  34.0364519  41.3795553  32.9807440  34.2460486  41.7686216  32.0725612
  32.7259093  40.7185475  33.1757948  32.7104013  40.2140894  34.1419111
  31.5006705  41.6900955  33.0989957  30.6197531  41.0564200  33.2016612
  31.4382574  42.8163217  34.1241870  32.3186785  43.4507339  34.0218173
  30.5406597  43.4115769  33.9565896  31.4107402  42.3931772  35.1283245
  31.5064910  42.2890613  31.7321116  30.7662901  42.8940959  31.6447263
  32.6124022  39.6719050  32.0388917  32.9777629  39.9974566  30.8851661
  32.1962004  38.4812939  32.3943609  31.9633955  38.2908747  33.3585402
  31.9946304  37.3912548  31.3863285  32.4239400  37.6712734  30.4243607
  32.7019718  36.1194938  31.8893008  32.4573023  36.0512168  32.9492887
  32.3174567  35.2411488  31.3708820  34.1854006  36.0570521  31.7899163
  34.9239380  35.4872905  30.8002501  34.3661544  35.0781083  29.9579038
  36.2841051  35.5565149  31.0958436  37.0388145  35.1433858  30.5668469
  36.4188962  36.2283830  32.2881462  37.5830479  36.5249299  33.0000899
  38.5574623  36.2139134  32.6234151  37.3947919  37.2278495  34.1908412
  38.2795617  37.5610789  34.7332807  36.1375275  37.5178858  34.7088741
  36.0173899  37.9755732  35.6908052  34.9714972  37.2233012  33.9671542
  33.9974610  37.5591854  34.3228734  35.1456817  36.5378169  32.7680959
  30.4673515  37.1494234  31.3410098  29.8675084  37.1339773  32.4200120
  29.9434029  36.9866277  30.1368867  30.5005141  36.9890932  29.2944377
  28.4638642  36.7169701  30.0152557  28.0173522  36.5455893  30.9947223
  27.8055332  37.9443693  29.3864740  27.8283199  38.7547797  30.1150445
  28.3843725  38.2297977  28.5080802  26.4582247  37.6882644  29.0039360
  26.0801588  38.4800702  28.6144368  28.3734138  35.5336403  29.0602922
  29.0766969  35.5799222  28.0132010  27.5778085  34.5219181  29.4047721
  27.0238784  34.4937557  30.2488501  27.5085437  33.3628170  28.4777753
  27.1840354  33.7139465  27.4982338  28.5005708  32.9190524  28.3937843
  26.5352455  32.3071857  28.9716247  25.5985091  32.6581997  29.7054851
  26.8202982  31.0795350  28.5572146  27.5345342  30.8877865  27.8693201
  25.9169621  29.9548617  28.9789286  25.5322727  30.1433031  29.9812275
  24.7344907  29.8360601  28.0158515  24.1207992  29.0242932  28.4063851
  24.1908767  30.7766893  28.1041736  25.0476531  29.5761233  26.5812013
  25.7247102  30.3604763  26.2428453  25.5635352  28.6162335  26.5571324
  23.8618201  29.5144866  25.6310034  23.8907732  30.0290824  24.4912131
  22.7900116  28.8641833  26.0568603  21.9760284  28.7948768  25.4629501
  22.7913336  28.4404182  26.9736606  26.7084585  28.6834085  29.1844654
  27.7327685  28.3547953  28.5603050  26.2564431  27.9209014  30.1766303
  25.4210081  28.2760764  30.6193472  26.7721811  26.6303288  30.6105215
  27.8539154  26.5971821  30.4807089  26.4431169  26.4045099  32.1228735
  27.1076318  27.0338100  32.7149045  25.4134378  26.7350383  32.2592988
  26.5739384  24.9786662  32.5714293  27.7994391  24.3669621  32.8094526
  28.7053508  24.9569932  32.6705757  27.8895941  23.0369369  33.2151360
  28.8592365  22.5674592  33.3809257  26.7148746  22.3140301  33.4428766
  26.7689549  21.0027233  33.8550585  27.6667025  20.6781942  33.9566936
  25.4822858  22.8852523  33.2285594  24.5719454  22.3089359  33.3936059
  25.4007222  24.2130421  32.7965286  24.4267459  24.6726052  32.6283859
  25.9763292  25.5706100  29.8032843  24.7442620  25.6882539  29.7644079
  26.7045115  24.6629361  29.2490455  27.7034817  24.7318001  29.3810137
  26.1827295  23.5572500  28.4238723  25.0948093  23.4902693  28.4173503
  26.6728100  23.7501511  26.9759651  27.7585216  23.8437667  26.9997491
  26.2812238  22.5871100  26.0609840  25.1955601  22.4931562  26.0363261
  26.6520293  22.7759469  25.0535395  26.7168480  21.6628796  26.4406304
  26.1542398  25.0661589  26.3975366  26.5149593  25.8972095  27.0036210
  26.5130967  25.1805000  25.3746742  25.0642588  25.0607617  26.4011597
  26.7120698  22.2518796  29.0506832  27.9055728  21.9648749  28.9716837
  25.7901045  21.5377330  29.6539042  24.8388668  21.8766688  29.6347077
  26.0645033  20.2816899  30.3502246  26.9082383  20.4291446  31.0243666
  25.1841678  19.9986890  30.9273029  26.3986362  19.1628673  29.3769902
  26.5222256  19.3981094  28.1673465  26.5673947  17.9759875  29.9433468
  26.4847027  17.8600603  30.9432580  26.8828975  16.7838881  29.1216163
  26.0616149  16.0701165  29.1858359  27.0220408  17.0844055  28.0831425
  28.1618237  16.1160107  29.6212047  28.7451093  16.4928311  30.6468802
  28.5542132  15.1157220  28.8581438  27.9666184  14.8789092  28.0715362
  29.7591311  14.3063282  29.0972329  29.7156074  13.7889745  30.0556430
  29.8814502  13.2672997  27.9876980  29.9352919  13.7705104  27.0223068
  30.7850048  12.6769743  28.1400305  29.0116066  12.6107063  28.0065805
  30.9812637  15.2216272  29.1404964  31.8046520  15.0715871  30.0499406
  31.0582632  16.1295688  28.1868151  30.3653692  16.1378138  27.4520164
  32.1592319  17.1062832  28.1196593  32.7809941  16.9655646  29.0038025
  33.0318035  16.9896362  26.8924999  33.8850820  17.6314073  27.1119192
  33.3519100  15.9476997  26.8928508  32.4693431  17.3452055  25.5286029
  32.0670473  16.3966485  25.1729365  31.6511538  18.0443875  25.7012582
  33.3954278  17.9075329  24.5038146  33.6199539  19.1281633  24.6759146
  33.8761153  17.3078072  23.5555438  31.5640234  18.5197231  28.1885325
  31.4168598  19.2280426  27.1849921  31.2430659  18.9354185  29.3993222
  31.3568396  18.2696740  30.1502811  30.6350380  20.2149067  29.7020813
  29.7645277  20.2676740  29.0482261  30.1587790  20.2740372  31.1570614
  31.0199980  20.2313746  31.8238310  29.6158851  21.2042356  31.3246838
  29.5011391  19.4286294  31.3592857  31.5190573  21.4125818  29.3771071
  32.7649608  21.3539508  29.4666889  30.8086023  22.5011215  29.0626853
  29.7993538  22.5026722  29.1016010  31.4982505  23.7617637  28.7191629
  32.4972919  23.7881810  29.1542693  31.6278986  23.8442452  27.1712907
  30.6582022  23.5823765  26.7479553  31.8672886  24.8770793  26.9182175
  32.6878812  22.9288015  26.6052114  33.6326197  23.1705434  27.0921723
  32.4072306  21.9035701  26.8465369  32.8399430  23.0669531  25.1340495
  32.0116505  22.5514726  24.6479318  32.8084737  24.1260216  24.8781529
  34.0914616  22.5052981  24.6437164  34.6047965  23.0331451  23.9523667
  34.6316313  21.3804250  25.1160363  34.0810089  20.6691511  26.1060107
  33.2179202  20.9807351  26.5280217  34.5308448  19.8237430  26.4269973
  35.7230991  20.8780932  24.5387235  36.1352761  21.3512373  23.7473040
  36.1329015  20.0266447  24.8953691  30.7092969  24.9923741  29.1339570
  29.4936393  24.9543941  29.2785087  31.4656231  26.0885676  29.2432476
  32.4684162  25.9913638  29.1721369  30.9190509  27.4061281  29.5248240
  29.8371694  27.3452621  29.4068118  31.2527457  28.0161000  30.9045544
  32.3276164  28.1861290  30.9665508  30.5000525  29.3696253  31.1001155
  29.4250347  29.2003144  31.0387059  30.7466574  29.7852322  32.0771301
  30.8021432  30.0697812  30.3212560  30.8828525  27.0204755  32.0669318
  29.8014676  26.8863220  32.0935815  31.3632155  26.0595855  31.8824290
  31.3785778  27.6010900  33.4601630  30.8982554  28.5618229  33.6455880
  31.1180759  26.9052856  34.2577181  32.4600038  27.7350887  33.4344345
  31.4535379  28.3067545  28.3705867  32.6659055  28.5421061  28.3823509
  30.5668948  28.7362043  27.5206909  29.5948134  28.4773388  27.6109451
  30.9665484  29.5809623  26.3656364  32.0352020  29.4752923  26.1787871
  30.2066864  29.1502810  25.1117926  29.1350301  29.2999945  25.2430856
  30.5645643  29.7828639  24.2994734  30.4518293  27.6989079  24.7404692
  31.5970073  27.2508699  24.6865496  29.3465299  26.9768844  24.5417722
  29.4224878  26.0014144  24.2911961  28.4394729  27.4094494  24.6429450
  30.6730252  31.0382399  26.7411401  29.5051077  31.3186993  27.0647342
  31.6778418  31.8832603  26.6471240  32.5991774  31.6072202  26.3388354
  31.4575944  33.2873652  27.0099666  30.4163543  33.6094458  26.9964639
  32.0697296  33.5974726  28.4544298  31.8390387  34.6382857  28.6815643
  31.5349083  32.7022478  29.5710944  31.7656457  31.6612459  29.3448756
  32.0021803  32.9804305  30.5157479  30.4548081  32.8254955  29.6504302
  33.5018563  33.5493810  28.2883657  33.9277623  33.7294228  29.1296678
  32.0741134  34.3075568  26.0642693  33.0171206  34.0600817  25.3131937
  31.5780176  35.5170912  26.3376913  30.7984374  35.5874583  26.9759722
  32.0798071  36.7671805  25.6921892  32.9844197  36.5503779  25.1240591
  31.0413455  37.3345239  24.7496622  30.3217135  36.5454353  24.5315609
  30.5372030  38.1537806  25.2622622  31.6436695  37.8446587  23.4491768
  31.5812211  38.9325056  23.4210639  32.6872479  37.5390878  23.3738611
  30.8853934  37.2832010  22.2558308  31.4345471  37.2184951  21.1763229
  29.6287351  36.8879246  22.4503854  29.0963123  36.5102525  21.6796771
  29.2138002  36.9676075  23.3677627  32.4103733  37.6509549  26.9054162
  31.7028104  37.5148152  27.9430606  33.4581357  38.4312040  26.8482827
  34.0604274  38.4105879  26.0377772  33.8564170  39.2661048  27.9920544
  33.0105571  39.3934086  28.6676386  35.0027244  38.6104711  28.7625696
  35.3009594  39.3448430  29.5108028  34.6938535  37.6909114  29.2596701
  36.2319882  38.2790298  27.9736943  36.5907462  37.0010966  27.5853073
  35.9126903  36.1843537  27.8328369  37.8046188  37.0511661  26.9296111
  38.2881301  36.2534372  26.5423837  38.2449556  38.3379341  26.8894058
  39.4084866  38.8614190  26.3239350  40.1181691  38.1891999  25.8416790
  39.5832165  40.2429044  26.4195039  40.4473424  40.7217627  25.9589812
  38.6524788  41.0359290  27.1077606  38.8290818  42.1046882  27.2288576
  37.5064046  40.5078725  27.6446594  36.7917031  41.1934206  28.0999905
  37.2883681  39.1366468  27.5527340  34.1993190  40.6815692  27.5497686
  34.5077173  40.8785227  26.3679218  34.1057889  41.5732090  28.5291892
  33.8275112  41.1934829  29.4227600  34.4039592  42.9853553  28.4475113
  34.8292370  43.2110267  27.4696001  33.1229519  43.8402177  28.6405183
  32.7422021  43.5636275  29.6236900  33.4685038  44.8737528  28.6628610
  32.0145633  43.6991674  27.6103462  31.7027375  42.6553369  27.5745218
  30.8035634  44.5853567  27.9703309  31.1145282  45.6294521  28.0058925
  30.0265474  44.4637126  27.2156459  30.4130348  44.2897367  28.9440848
  32.5001956  44.1089754  26.2315882  33.3352271  43.4736843  25.9362459
  31.6885557  43.9990032  25.5123887  32.8259764  45.1488923  26.2547975
  35.3737067  43.3331574  29.6044009  35.0084815  43.0181871  30.7502514
  36.4808181  43.9637704  29.2630425  36.6781671  44.1662357  28.2934238
  37.4706306  44.3926430  30.2893375  37.1545580  44.0735018  31.2824872
  38.8384411  43.7417247  29.9727464  38.7002266  42.6636660  29.8903718
  39.0956840  44.1502499  28.9954884  39.9718863  44.0376800  30.9652676
  39.7708883  43.5307074  31.9090257  41.3184578  43.5278977  30.3803026
  41.5203778  44.0347910  29.4366997  42.1236654  43.7376540  31.0843933
  41.2571013  42.4531988  30.2089604  40.0977623  45.5416090  31.1286441
  39.1594694  45.9461695  31.5081658  40.9000867  45.7653336  31.8317259
  40.3242436  45.9947529  30.1635193  37.5568065  45.9120190  30.2139960
  37.9930925  46.4069928  29.1380246  37.1577698  46.5992525  31.2636005
  36.7952579  46.1388342  32.0862180  37.1997627  48.0845326  31.2484781
  37.4839752  48.4187729  30.2506776  35.8107704  48.7501855  31.6297084
  35.5440250  48.4452672  32.6416234  35.8943161  50.2941853  31.5616297
  36.1605829  50.5999000  30.5498293  34.9281709  50.7229345  31.8277815
  36.6531171  50.6486227  32.2592655  34.7768211  48.2845249  30.6981108
  33.9354724  48.6861669  30.9270571  38.2695311  48.5779679  32.2298207
  38.2825051  48.0814344  33.3815225  39.1141492  49.5039893  31.7818268
  39.0408497  49.8807893  30.8476168  40.1375836  50.0743117  32.6919688
  40.2857272  49.3947040  33.5311863  41.4857779  50.2817781  31.9841681
  41.3319275  50.8991363  31.0991268  42.1709840  50.7873849  32.6645757
  42.0390551  49.0303406  31.5982854  42.8798493  49.1743504  31.1579149
  39.7004655  51.4738579  33.1307939  39.0699987  52.1511526  32.3092463
  40.1342513  51.8669008  34.3280725  40.6881346  51.2835476  34.9388193
  39.7803756  53.2505305  34.7930389  38.7434398  53.5080441  34.5772846
  39.9762119  53.3937288  35.8556968  40.6979147  54.1698150  33.9904592
  41.9238920  53.9238022  33.9753508  40.1177776  55.1423520  33.3183536
  39.1223800  55.2960623  33.3935599  40.9137635  56.0837954  32.4967262
  41.9847251  56.0000865  32.6814784  40.6371625  55.7782036  30.9574398
  41.3369247  56.3852839  30.3830823  40.7935250  54.3181925  30.5654903
  40.0937120  53.7105020  31.1391397  40.5865983  54.2029123  29.5015397
  41.8125702  53.9925340  30.7742825  39.2600274  56.2600743  30.7365136
  39.0119184  56.1112207  29.8211531  40.4534894  57.5177586  32.7500350
  39.4143485  57.7360573  33.3617153  41.2373979  58.4292891  32.1751146
  42.0565755  58.1747309  31.6419659  40.8684506  59.8825311  32.2632667
  40.4960718  60.0954979  33.2653038  42.1359602  60.7816533  31.9950399
  41.8510351  61.8115118  32.2102362  43.3565855  60.4048118  32.8350224
  43.6424040  59.3751625  32.6200115  44.1852113  61.0697671  32.5914801
  43.1136048  60.5004583  33.8932816  42.4300526  60.5469625  30.5626186
  43.1985832  61.0614838  30.3052691  39.8494308  60.0552525  31.1194748
  39.6020786  59.0648879  30.4091503  39.3027719  61.2485835  30.9791495
  39.4841621  61.9895482  31.6410923  38.3194539  61.4923226  29.9106960
  37.5765683  60.6954689  29.9459711  37.6069926  62.8234952  30.0257415
  38.3089272  63.4685637  30.5542051  37.4992846  63.1697417  28.9978250
  36.2546990  62.8699028  30.7203062  35.9050733  63.8894252  30.5577124
  35.6288930  62.1775849  30.1571348  36.1745369  62.5439203  32.1686427
  36.3590653  61.3192529  32.4154224  35.9459884  63.3629525  33.0544032
  38.9123561  61.3670645  28.5242980  38.2631559  60.7881840  27.6225578
  40.1167025  61.8533552  28.3390083  40.5513187  62.2911521  29.1387220
  40.8411318  61.8460227  27.0791653  40.2713669  62.4245289  26.3519806
  42.2024739  62.5308039  27.2944501  42.7882125  61.9580467  28.0134491
  42.7388217  62.5801935  26.3468257  42.0459320  63.5398578  27.6757688
  41.0625513  60.4532179  26.5005452  41.2604088  60.3006348  25.2717735
  41.0224233  59.4547313  27.3698992  40.9476285  59.6670901  28.3544848
  41.2574425  58.0646762  26.9756496  41.4586843  57.9897227  25.9070136
  42.4957820  57.5515640  27.7492808  42.2992461  57.6107611  28.8197800
  42.7228250  56.5204178  27.4785615  43.7155819  58.4230286  27.4260554
  43.9041175  58.7890255  26.2592506  44.5309613  58.7285515  28.4239262
  45.3449400  59.3005933  28.2498382  44.3350532  58.3881021  29.3544180
  40.0329195  57.1792729  27.0964486  40.1327054  55.9673361  26.7741214
  38.9180165  57.7337475  27.5008830  38.9413024  58.6778068  27.8590858
  37.6854336  56.9519466  27.6763044  38.0354793  56.2012247  28.3848126
  36.5558289  57.7203899  28.3085550  36.1885660  58.4700087  27.6076344
  35.7474253  57.0351107  28.5634598  36.9124341  58.2132387  29.2130063
  37.2514671  56.1988122  26.4339133  36.6084731  55.1526084  26.6221824
  37.5901903  56.6618722  25.2498909  38.0579695  57.5561246  25.2099597
  37.1998461  56.0259462  23.9903737  36.1376904  55.7853248  24.0353817
  37.4495243  56.9291000  22.7633936  36.9230036  56.5656443  21.8809112
  37.0975143  57.9310600  23.0088831  38.8805867  57.0628105  22.3801341
  39.7687684  58.0136147  22.8187484  39.3720503  58.7695658  23.4964301
  41.0173673  57.7950602  22.2846138  41.8502841  58.3332663  22.4761424
  40.9486222  56.6948796  21.4605398  41.9373457  56.0902912  20.6975871
  42.9431018  56.5099103  20.7193388  41.5770790  54.9817632  19.9508659
  42.3170902  54.4715223  19.3343128  40.2550050  54.4955296  19.9739545
  39.9761707  53.6281415  19.3756329  39.2836346  55.0885977  20.7403930
  38.2647597  54.7075188  20.6713014  39.6308065  56.2008902  21.5168355
  37.8437351  54.6600924  23.8232316  37.2636219  53.7926534  23.1222549
  38.9861039  54.4616162  24.4485800  39.3763023  55.1996056  25.0171011
  39.7220014  53.1846150  24.3574554  39.2047144  52.4992352  23.6860629
  41.1258408  53.4373089  23.8104282  41.5840417  52.4652572  23.6280367
  41.0161598  53.9697204  22.8656488  42.0264922  54.2617066  24.7663866
  41.4897229  55.1445178  25.1136959  42.3151874  53.6523524  25.6228004
  43.2781359  54.6941394  24.0044095  43.6071181  53.8497418  23.3987178
  43.0009368  55.5223188  23.3521987  44.3922443  55.1230961  24.9096568
  44.6920410  54.2728225  25.5222394  45.2352691  55.4449567  24.2982535
  43.9616642  56.2469888  25.7948387  43.1807809  55.9488150  26.3617721
  44.7289122  56.5167720  26.3937106  43.6842299  57.0351218  25.2274098
  39.8663028  52.5126223  25.7236571  40.9458708  51.9627954  26.0065005
  38.8244547  52.5556521  26.5140088  37.9767597  53.0080125  26.2027490
  38.8445991  51.9591319  27.8667212  39.8408992  52.0102031  28.3058989
  37.8710108  52.7754161  28.7522210  37.9283463  52.4381874  29.7871551
  38.1143640  53.8367369  28.7024472  36.5255955  52.5634336  28.2481772
  35.9017734  53.0606350  28.7822526  38.4217545  50.5010126  27.9394657
  38.7499019  49.8389535  28.9611677  37.7127943  50.0281833  26.9309411
  37.5136058  50.6186541  26.1361031  37.1381193  48.6692273  26.9543783
  37.4073593  48.0751049  27.8276639  35.5442307  48.8377957  26.9210649
  35.2760945  49.2233682  25.9374302  34.7839959  47.5238156  27.1818008
  35.0512843  47.1378540  28.1655133  33.7108053  47.7108723  27.1447759
  35.0511468  46.7915447  26.4198885  35.1863557  49.8576539  27.8896782
  34.2340073  49.9786206  27.8898990  37.5591011  47.7215433  25.8656715
  37.3613693  47.9891276  24.6644943  38.0801133  46.5758461  26.2394605
  38.1577313  46.4216148  27.2345924  38.5102444  45.4968043  25.3283133
  38.7402672  45.8824162  24.3350902  39.7845532  44.8825490  25.9231086
  39.4964364  44.6288528  26.9432686  39.9531535  43.9674064  25.3554925
  41.0474701  45.6963317  25.9473696  40.8300514  46.6431865  26.4416327
  42.1729804  44.9906729  26.6798982  42.3912944  44.0438825  26.1859086
  43.0636803  45.6188906  26.6700439  41.8738155  44.8014952  27.7108262
  41.4551100  45.9600201  24.4957608  40.6604258  46.5068578  23.9882718
  42.3712123  46.5503509  24.4765948  41.6243921  45.0108961  23.9872274
  37.3700329  44.4369334  25.3111245  36.7087156  44.3031935  26.3359006
  37.2472247  43.7595641  24.1930320  37.8243042  43.9643251  23.3898188
  36.2074386  42.7004918  24.0641065  35.7583106  42.4103432  25.0139470
  35.0892042  43.1170281  23.1000498  34.7010292  44.0685622  23.4633710
  35.5131327  43.2643119  21.6571385  35.9010179  42.3129901  21.2929505
  34.6548688  43.5608914  21.0542088  36.2897428  44.0254465  21.5819558
  33.9007319  42.1328400  23.2295614  33.5232881  42.1506927  24.2519702
  33.1065235  42.4292584  22.5443835  34.2346231  41.1248054  22.9836270
  36.9024740  41.4157937  23.5858152  37.8226871  41.5231332  22.7484318
  36.4124036  40.2991042  24.0943205  35.6434149  40.2949941  24.7491019
  37.0084739  38.9898643  23.6942379  37.2395700  38.9961115  22.6290362
  37.9206010  38.8070677  24.2623126  36.0079355  37.8639971  23.9811213
  34.8145018  38.1045921  24.2822044  36.5350504  36.6565955  23.8672871
  37.4818092  36.5152405  23.5451599  35.6879213  35.4560290  24.1206948
  34.9099482  35.6894426  24.8475890  35.0123732  35.0088788  22.7980474
  34.3820697  34.1263605  22.9074926  34.4121549  35.8396656  22.4270603
  36.0076110  34.6929328  21.7336513  36.4851112  33.4523321  21.4515637
  37.3855069  33.5408756  20.4699826  37.8709347  32.6447539  20.0834275
  37.5185291  34.8111086  20.1349735  38.1420713  35.1823471  19.4324944
  36.6713302  35.5529406  20.8956911  36.6245257  36.6338340  20.7631008
  36.5430465  34.3852101  24.7503015  37.7498223  34.3188298  24.4295652
  35.9767814  33.6228076  25.6749908  35.0041934  33.8117920  25.8710951
  36.6265405  32.5455240  26.3956137  37.5748009  32.3057949  25.9145407
  36.9068996  32.9497894  27.8768190  36.0198042  33.4986654  28.1928826
  36.9798349  32.0211817  28.4429181  38.1174841  33.7785438  28.1258802
  38.9140656  34.0513447  27.2109160  38.3221253  34.1827485  29.3044987
  35.7430178  31.2797674  26.4411855  34.5304308  31.3729933  26.6844975
  36.4023212  30.1428232  26.2762343  37.3775287  30.1417506  26.0134253
  35.7015187  28.8443902  26.3753934  34.6746336  29.0975224  26.6390795
  35.6807548  27.9365041  25.1283707  36.7136047  27.7346280  24.8445266
  34.9407223  26.5940302  25.3768194  33.9076081  26.7950968  25.6602747
  34.9571284  25.9955276  24.4659821  35.4372650  26.0478492  26.1788370
  34.9631583  28.6440891  24.0532015  34.9401491  28.0931210  23.2673865
  36.3598155  28.1293113  27.5781376  37.5898389  27.9480391  27.5844370
  35.5124120  27.7683053  28.5265980  34.5355471  28.0093539  28.4386783
  35.9504616  27.0757223  29.7414290  37.0384584  27.1130131  29.7959409
  35.3763452  27.7071470  31.0082673  34.3077867  27.7913768  30.8103093
  35.5343240  27.0825611  31.8874915  35.8564591  29.0835798  31.3673151
  35.2031513  30.1891085  30.8087712  34.3585667  30.0433853  30.1353163
  35.6372690  31.4840846  31.1172606  35.1074078  32.3558878  30.7334546
  36.7595214  31.6510377  31.9241932  37.0994330  32.6650586  32.1347202
  37.4539001  30.5465649  32.4659423  38.3243829  30.6731197  33.1096376
  36.9953388  29.2639663  32.1553777  37.5278372  28.3894321  32.5291896
  35.5521663  25.5756616  29.6724016  34.4610263  25.2139368  29.2614349
  36.4878920  24.7514685  30.1475406  37.3959391  25.1174713  30.3957174
  36.2781324  23.2959019  30.2207791  35.2225596  23.0576008  30.3514612
  36.8270997  22.4837328  28.9990294  36.4418072  21.4676439  29.0839617
  36.4310180  23.0623828  27.6588830  36.8163802  24.0783669  27.5730230
  36.8465629  22.4480183  26.8601478  35.3442663  23.0783640  27.5763248
  38.2728867  22.4044723  29.1786167  38.6593045  21.9126432  28.4503407
  36.8820190  22.8004339  31.5397626  37.6585534  23.5329839  32.1757648
  36.5323340  21.5733690  31.8816810  35.8520653  21.0542324  31.3451820
  37.0448342  20.9746157  33.1252014  37.1813046  21.7371987  33.8919752
  36.0178026  19.9382594  33.6364058  35.6095045  19.3834258  32.7916860
  36.5086585  19.2469246  34.3213998  34.8789865  20.6645623  34.3706041
  35.3219802  21.3571549  35.0862667  34.3010135  21.2236252  33.6347387
  33.9565456  19.6873225  35.1093234  33.5179900  18.9827891  34.4026406
  34.5215736  19.1400666  35.8638788  32.8435370  20.4882480  35.7875358
  33.2874860  21.2384528  36.4419077  32.2403702  20.9823920  35.0258858
  31.9801725  19.5775554  36.5906558  32.5388055  19.1198946  37.2967546
  31.2481037  20.1128624  37.0352024  31.5683640  18.8825815  35.9844182
  38.4179213  20.3636765  33.0263528  38.9031314  19.8365680  34.0678949
  39.0472590  20.4137077  31.8640444  38.5956022  20.8729325  31.0860868
  40.3640017  19.8037523  31.6430101  40.6934203  19.0736330  32.3822721
  40.4482160  19.1567564  30.2355819  40.5975922  19.9546509  29.5081547
  41.5818356  18.1493661  30.1224567  41.4328954  17.3508685  30.8493125
  41.5947242  17.7274477  29.1175093  42.5315615  18.6467134  30.3193529
  39.1528502  18.5857490  29.7227544  38.4061263  19.3772577  29.6593554
  39.3109559  18.1560357  28.7335888  38.8023710  17.8099939  30.4035401
  41.4756037  20.8672244  31.7878450  41.5017731  21.7158116  30.8557587
  42.2368168  20.8464941  32.7525027  41.9937623  35.5719893  31.8446049
  41.6068204  34.4016087  31.7577987  43.7585273  41.6825650  33.1174904
  44.5458214  42.2007133  34.1554940  45.2604990  41.3233446  34.9824214
  46.0462830  41.8141010  36.0521647  45.1566223  39.9409615  34.7948036
  44.3429571  39.4224530  33.7896395  43.7062407  40.3043081  32.9144636
  42.7864211  39.7248976  31.9039902  43.0585437  35.9063063  32.7061580
  41.5205380  37.9399660  31.0923836  42.5781162  38.4562286  31.9872374
  41.1777449  36.6060004  31.0624703  40.1051198  36.1699225  30.2679860
  39.3346124  37.1099568  29.5838523  39.6396110  38.4764441  29.6712887
  40.7129908  38.9061424  30.4323256  42.7355658  46.0126317  11.6493388
  34.7382334  36.7797774  77.3036158  33.8309395  36.5487027  77.5027307
  35.2353366  35.9835393  77.4910140  37.0664550  18.1969789  68.2242094
  36.4152530  18.7823870  67.8376107  37.8608913  18.7275984  68.2837131
  43.3331274  14.6894725  69.4846930  42.5560717  14.3505885  69.0402093
  44.0122755  14.6947348  68.8101895  34.7382335  13.7859896  64.0281465
  33.8309397  13.5549150  64.2272614  35.2353367  12.9897516  64.2155447
  37.6450414  22.4957404  66.9478151  36.9712112  22.7989100  67.5563109
  38.0316236  23.2986484  66.5983608  35.6146656  15.4281235  65.8893534
  35.1766086  14.7117094  65.4299171  36.3557097  15.6557350  65.3278625
  35.8441629  22.6637076  69.1625230  36.0193385  22.1925119  69.9770853
  35.1574417  23.2902842  69.3906491  39.7357884  14.2865617  65.4825591
  39.1187054  13.5612445  65.3858644  39.2674372  15.0474977  65.1392666
  40.5595569  17.6104788  69.6018231  40.8355413  17.4961383  70.5112105
  39.6900068  17.2122273  69.5630404  40.6231982  20.7576123  71.1221076
  40.7968859  20.1922545  70.3694929  41.1160873  21.5577018  70.9400566
  41.6107154  20.0742887  68.2217975  42.3058059  20.6949580  68.4405289
  41.9530305  19.2238238  68.4970352  43.5098578  17.5242593  69.7505305
  44.0349902  17.8629865  69.0254625  43.4220930  16.5889608  69.5668440
  35.7022023  20.1804639  67.1293068  35.1295990  20.7994826  66.6763540
  36.2754817  20.7304000  67.6632990  38.9219283  20.4641789  68.2601650
  39.8549956  20.3987351  68.4634526  38.8342495  21.2998056  67.8016183
  41.5507299  19.7807659  65.2205598  41.4720931  19.4467523  66.1141356
  42.3716966  20.2729427  65.2197070  39.1211251  17.0975655  64.8415576
  39.8247101  17.3025657  65.4573232  38.3973900  17.6652416  65.1064660
  41.0297949  17.5358184  66.8914036  41.8643552  17.1039382  66.7091511
  40.8682291  17.3640197  67.8190931  40.6843841  14.0390297  68.2570376
  40.6292644  13.8734569  67.3158820  40.0589896  14.7466330  68.4132565
  49.6582224  28.0527835  76.9869213  50.2960634  27.9334582  76.2832553
  49.5403066  29.0008679  77.0457165  46.4671930  28.0055263  76.9230738
  46.1290441  27.8896328  76.0351273  47.3361698  27.6046428  76.9031744
  42.3258746  29.8590739  72.9127629  41.7623611  29.7680676  72.1443916
  42.2111141  29.0390644  73.3930121  39.8723178  31.3541931  75.7511849
  40.6644469  31.0132756  75.3358148  40.1119828  31.4636906  76.6714002
  47.9058304  33.5261707  68.2242094  47.2546284  34.1115788  67.8376107
  48.7002667  34.0567902  68.2837131  41.8313931  30.6150844  68.6229228
  42.6044807  30.0679831  68.4842104  42.1839330  31.4795094  68.8343689
  44.1680209  26.7743510  66.2547678  44.4205730  26.2525032  65.4931141
  43.2304768  26.6109656  66.3574361  49.2123492  25.7779289  74.0622421
  49.9986581  25.3598712  73.7112838  49.4762196  26.6825381  74.2304069
  49.3833569  31.2152139  68.7611078  48.7479402  31.2886766  69.4731983
  49.0530976  31.8045738  68.0830157  43.8876498  28.6771616  68.4572053
  43.7712756  28.0016520  69.1253137  43.9978758  28.1903990  67.6404206
  46.2308039  28.1381763  72.1618742  45.8666246  27.6112384  72.8731664
  47.0875155  27.7480233  71.9885227  45.8713526  23.1671663  67.1580091
  46.0387928  24.0351900  67.5250562  45.6810695  23.3298945  66.2341380
  42.0801341  28.0802439  74.8582625  41.1551837  27.9478653  75.0660317
  42.3285754  28.8596658  75.3552568  45.8502747  25.6229321  68.1426757
  45.7302372  26.0686371  68.9812238  45.1555335  25.9714638  67.5840296
  43.6109639  38.3932962  71.7916889  43.5333669  39.3440787  71.8705369
  43.0071282  38.0478835  72.4491815  51.5487813  26.0950794  68.9707091
  52.4605669  26.3278181  68.7954789  51.0397460  26.6787838  68.4082170
  45.7085357  30.8151020  73.6270758  46.1723703  31.0938723  72.8375381
  45.4442155  29.9134465  73.4443849  42.6009438  30.3622502  76.5650521
  43.1710795  30.7909770  75.9268006  43.1917550  30.0805087  77.2634707
  44.6454243  26.9374173  70.4360323  45.3478287  27.3895216  70.9034250
  44.3134872  26.2957992  71.0640216  40.3394323  25.5602305  72.6960933
  39.5425486  25.6720999  73.2144429  40.1119915  25.8988957  71.8301824
  45.8848008  33.7515115  70.5122428  45.7493683  34.5966651  70.9407276
  46.4257820  33.9534393  69.7488362  39.3377405  31.2690553  71.0850353
  39.8501926  32.0633804  71.2355918  39.9900118  30.5716844  71.0183955
  41.1472290  34.3856310  73.1673107  41.3238918  35.3074274  72.9794091
  41.9429123  34.0714729  73.5967486  37.3026322  29.5979208  71.8609924
  38.1401544  30.0076216  71.6443632  37.4804590  28.6578650  71.8310118
  49.1990754  27.2654288  67.5493757  48.6837378  28.0358893  67.7882144
  48.9268063  26.5919424  68.1726818  46.7837865  22.1103989  72.6078995
  45.9279461  21.7210840  72.4284634  47.1964817  22.1895950  71.7478781
  54.1725028  30.0186643  69.4846930  53.3954471  29.6797802  69.0402093
  54.8516509  30.0239266  68.8101895  48.9877057  25.1381380  69.3753538
  48.6827193  25.4527530  70.2263681  49.9407499  25.2162800  69.4180871
  47.4323489  31.2971604  71.0246492  46.9044851  30.5624363  70.7119730
  46.9310992  32.0746280  70.7786460  51.2221794  27.8464997  74.1917480
  51.7353676  28.4794989  74.6939190  51.8723018  27.2466192  73.8260840
  42.4911804  23.9895731  67.4048989  41.6549116  24.3270418  67.7258264
  42.3516573  23.8544711  66.4676126  45.5776089  29.1151814  64.0281465
  44.6703151  28.8841067  64.2272614  46.0747121  28.3189433  64.2155447
  48.4844168  37.8249321  66.9478151  47.8105867  38.1281018  67.5563109
  48.8709990  38.6278402  66.5983608  47.7002625  25.3214452  76.4375821
  46.7825186  25.5429399  76.2797509  48.1162768  25.3960763  75.5787528
  48.4837673  26.7205868  71.5678501  49.2309492  27.2327265  71.2585623
  48.7529262  26.3989921  72.4282895  46.7564323  29.2164409  68.5505455
  45.8475542  28.9323442  68.6477925  46.7859407  29.6363487  67.6908762
  51.9883590  32.8270998  72.3196623  51.5345917  31.9861908  72.3761813
  51.3577557  33.4632397  72.6571403  50.9316510  23.7562984  73.5497290
  50.1939267  23.2440371  73.8807533  51.1843283  23.3163366  72.7380567
  37.3252493  26.9369923  72.5320657  37.1276893  26.3439284  71.8071724
  36.7699157  26.6322133  73.2496596  45.3049217  26.8293029  74.6515251
  45.3597827  25.8766866  74.5757727  44.4940419  26.9852469  75.1356549
  46.4540411  30.7573153  65.8893534  46.0159840  30.0409011  65.4299171
  47.1950851  30.9849267  65.3278625  43.2441577  25.4470089  72.4105629
  42.4309442  25.7464260  72.8170822  43.7400571  25.0525778  73.1280112
  45.3950155  35.4427846  74.3439894  45.3526333  35.6688692  73.4148426
  46.3112853  35.2091221  74.4925695  54.5713525  29.0330350  71.9469852
  54.4331424  29.2231946  71.0191042  54.2149744  29.7949732  72.4037904
  43.5115955  32.3190875  74.1401857  44.3056554  31.8241195  73.9384432
  42.8007648  31.7908738  73.7769562  39.8198719  26.4633957  70.2161610
  38.8896307  26.4018412  70.4331572  39.9156191  25.9409910  69.4198251
  39.7384268  22.9888770  72.8039851  39.9991085  23.9034103  72.6949012
  40.5601440  22.5213212  72.9536464  46.6835383  37.9928994  69.1625230
  46.8587139  37.5217037  69.9770853  45.9968171  38.6194760  69.3906491
  47.6392447  32.2701500  75.2088532  47.3042279  32.2302270  76.1046182
  47.1396392  31.6046216  74.7358942  50.5751638  29.6157534  65.4825591
  49.9580809  28.8904362  65.3858644  50.1068127  30.3766894  65.1392666
  42.3650184  23.8342959  64.6046896  41.4879650  23.7131759  64.2409142
  42.8407937  23.0429037  64.3525784  45.5514110  36.1869249  71.8509416
  44.7681632  36.7290929  71.9447641  46.2506855  36.7043229  72.2503657
  48.8610760  21.9963878  74.4943622  49.3579460  21.2433841  74.1744692
  48.0897742  22.0328195  73.9286831  49.9440541  30.7535566  72.0682045
  49.0096820  30.8737028  71.8986749  50.1217209  29.8508032  71.8042055
  45.4445729  24.1381261  74.2215306  45.0743516  23.5852302  74.9096212
  45.9404821  23.5339395  73.6690306  53.3313092  26.5952885  72.6032079
  53.7973544  27.4280876  72.5292382  53.7820593  26.1297866  73.3077338
  51.3989323  32.9396706  69.6018231  51.6749167  32.8253301  70.5112105
  50.5293822  32.5414191  69.5630404  48.0343387  37.1883057  73.2451045
  48.2165782  36.3704713  73.7078797  48.8576373  37.4050749  72.8075935
  48.3685553  36.1151242  70.5066093  48.8973319  35.6043697  69.8936255
  48.6313772  35.7993772  71.3711626  41.7241301  37.1666359  73.2663869
  41.0551676  37.6512486  72.7827909  41.5854171  37.4135579  74.1807248
  37.0928878  25.4284814  70.0459801  37.3882319  24.5195492  69.9926855
  36.1916914  25.4072553  69.7240804  38.8216719  23.1098911  70.1699126
  38.4929426  22.2296290  69.9874232  39.1756090  23.0546580  71.0575516
  48.0696298  34.7453814  74.6794112  47.9221261  33.8170522  74.8601682
  48.8949792  34.7673905  74.1951187  41.9358543  23.3971881  70.5374604
  42.2754615  23.9257802  69.8153213  42.3830663  23.7352287  71.3133171
  43.9226690  21.8946503  68.7367897  44.6435052  22.2727756  68.2331614
  43.2991994  22.6135380  68.8402875  48.0657813  22.5991652  69.6726229
  48.2821427  23.4816290  69.3715057  47.5851880  22.2077865  68.9431871
  51.4625736  36.0868040  71.1221076  51.6362614  35.5214463  70.3694929
  51.9554628  36.8868935  70.9400566  44.0690313  21.4294293  71.5665434
  44.1906224  20.5010939  71.7656321  43.7792355  21.4432979  70.6543749
  52.4500909  35.4034805  68.2217975  53.1451814  36.0241497  68.4405289
  52.7924059  34.5530156  68.4970352  54.3492332  32.8534510  69.7505305
  54.8743656  33.1921783  69.0254625  54.2614685  31.9181526  69.5668440
  38.5125332  35.1118034  74.1125187  39.3383352  34.8121806  73.7323830
  38.1619384  34.3425657  74.5614975  43.4806865  34.4644503  76.1822860
  42.8586874  33.8015208  75.8825088  44.1511732  34.4905634  75.4996508
  36.7133937  33.0304361  75.0714120  35.8765845  32.6026535  74.8898121
  36.6857582  33.2236804  76.0084911  43.0420372  33.0148426  69.6581321
  43.1908492  33.6983890  69.0047993  43.8486815  32.9953516  70.1730776
  40.7973005  29.0413604  70.6642390  40.5519047  28.1375934  70.8622600
  40.9668919  29.0430754  69.7221868  40.0668652  24.7741961  68.1628551
  39.3737897  24.8486316  67.5068587  39.8220404  24.0102305  68.6850068
  46.5415777  35.5096556  67.1293068  45.9689744  36.1286744  66.6763540
  47.1148571  36.0595918  67.6632990  49.7613037  35.7933707  68.2601650
  50.6943710  35.7279268  68.4634526  49.6736250  36.6289973  67.8016183
  52.3901054  35.1099577  65.2205598  52.3114685  34.7759440  66.1141356
  53.2110721  35.6021345  65.2197070  46.9262576  26.8457369  64.4709121
  47.8721681  26.7163577  64.5397539  46.5476821  26.1072031  64.9478549
  45.1105493  24.7707346  64.4064006  44.2036948  24.4740458  64.4826719
  45.3881474  24.4737164  63.5398292  46.7267559  19.3144235  70.5608247
  45.9168287  18.9691320  70.9363493  47.4151976  19.0051779  71.1495859
  48.6558107  18.3922282  72.1832544  49.2089146  18.8117735  72.8422567
  48.8928193  17.4658030  72.2255500  43.8804278  21.6294281  64.5475985
  44.7423442  21.9549179  64.8071802  44.0654622  20.8425777  64.0349051
  37.8108436  29.6434874  74.7022189  37.7879124  29.7422561  73.7504072
  38.1209072  30.4900025  75.0239355  50.8161792  22.6622898  70.7467556
  49.9287647  22.9472548  70.5287751  51.2315781  22.5016661  69.8994833
  38.8246043  37.2430649  75.8339001  38.6900511  36.4831050  75.2676999
  38.4078105  37.9671549  75.3667790  49.9605006  32.4267572  64.8415576
  50.6640856  32.6317575  65.4573232  49.2367654  32.9944334  65.1064660
  50.7902816  28.1777434  70.9617846  50.7338017  28.6345985  70.1225479
  51.3431158  27.4168118  70.7840689  51.8691703  32.8650101  66.8914036
  52.7037307  32.4331300  66.7091511  51.7076046  32.6932115  67.8190931
  51.5237595  29.3682215  68.2570376  51.4686399  29.2026486  67.3158820
  50.8983650  30.0758248  68.4132565  44.8333721  18.8690324  67.8355694
  44.8212390  19.8132164  67.9923965  45.7257143  18.6860469  67.5415155
  55.0073964  42.1035428  66.2547678  55.2599484  41.5816949  65.4931141
  54.0698523  41.9401574  66.3574361  56.7107280  38.4963581  67.1580091
  56.8781683  39.3643817  67.5250562  56.5204449  38.6590863  66.2341380
  53.3305558  39.3187649  67.4048989  52.4942871  39.6562335  67.7258264
  53.1910328  39.1836629  66.4676126  56.4169844  44.4443732  64.0281465
  55.5096906  44.2132985  64.2272614  56.9140876  43.6481351  64.2155447
  53.2043939  39.1634876  64.6046896  52.3273405  39.0423677  64.2409142
  53.6801692  38.3720954  64.3525784  47.9322632  40.7576731  70.0459801
  48.2276073  39.8487410  69.9926855  47.0310668  40.7364471  69.7240804
  49.6610474  38.4390829  70.1699126  49.3323180  37.5588208  69.9874232
  50.0149845  38.3838498  71.0575516  54.7620444  37.2238420  68.7367897
  55.4828807  37.6019673  68.2331614  54.1385748  37.9427297  68.8402875
  50.9062407  40.1033879  68.1628551  50.2131652  40.1778234  67.5068587
  50.6614159  39.3394222  68.6850068  57.7656330  42.1749287  64.4709121
  58.7115435  42.0455495  64.5397539  57.3870575  41.4363949  64.9478549
  55.9499247  40.0999263  64.4064006  55.0430703  39.8032376  64.4826719
  56.2275229  39.8029081  63.5398292  54.7198032  36.9586198  64.5475985
  55.5817196  37.2841097  64.8071802  54.9048376  36.1717694  64.0349051
  55.6727475  34.1982241  67.8355694  55.6606145  35.1424081  67.9923965
  56.5650897  34.0152387  67.5415155  37.6450415  -0.4980474  53.6723458
  36.9712114  -0.1948777  54.2808416  38.0316237   0.3048606  53.3228915
  35.8441630  -0.3300801  55.8870537  36.0193386  -0.8012758  56.7016160
  35.1574418   0.2964965  56.1151798  49.6582225   5.0589958  63.7114520
  50.2960635   4.9396705  63.0077860  49.5403068   6.0070801  63.7702472
  46.4671931   5.0117386  63.6476044  46.1290443   4.8958450  62.7596579
  47.3361699   4.6108551  63.6277051  42.3258747   6.8652862  59.6372935
  41.7623612   6.7742799  58.8689223  42.2111142   6.0452766  60.1175428
  39.8723179   8.3604054  62.4757156  40.6644471   8.0194878  62.0603455
  40.1119829   8.4699029  63.3959309  47.9058306  10.5323830  54.9487400
  47.2546285  11.1177910  54.5621414  48.7002668  11.0630025  55.0082438
  41.8313933   7.6212967  55.3474535  42.6044809   7.0741954  55.2087410
  42.1839332   8.4857216  55.5588996  44.1680211   3.7805633  52.9792985
  44.4205731   3.2587154  52.2176448  43.2304770   3.6171778  53.0819668
  49.3833571   8.2214262  55.4856385  48.7479404   8.2948888  56.1977289
  49.0530977   8.8107860  54.8075464  43.8876499   5.6833739  55.1817359
  43.7712757   5.0078642  55.8498444  43.9978759   5.1966113  54.3649513
  46.2308040   5.1443886  58.8864049  45.8666247   4.6174507  59.5976970
  47.0875156   4.7542355  58.7130534  48.6288860   8.6350765  65.5491228
  48.3289583   9.5375803  65.4407035  48.2839920   8.3682948  66.4012380
  42.0801342   5.0864561  61.5827932  41.1551838   4.9540776  61.7905624
  42.3285755   5.8658781  62.0797874  45.8502748   2.6291443  54.8672064
  45.7302373   3.0748494  55.7057544  45.1555336   2.9776761  54.3085602
  43.6109640  15.3995085  58.5162195  43.5333670  16.3502910  58.5950676
  43.0071284  15.0540957  59.1737122  50.1557397   8.0838735  63.0865980
  49.5266259   8.2484449  62.3842047  49.7683059   8.4980344  63.8576944
  54.0346628   9.0193173  60.4410343  53.3497667   9.3992074  59.8907377
  54.1190478   9.6288499  61.1742291  45.7085358   7.8213143  60.3516065
  46.1723704   8.1000846  59.5620687  45.4442156   6.9196588  60.1689155
  42.6009439   7.3684625  63.2895828  43.1710797   7.7971893  62.6513312
  43.1917551   7.0867209  63.9880014  44.6454244   3.9436295  57.1605630
  45.3478288   4.3957339  57.6279556  44.3134873   3.3020114  57.7885523
  40.3394324   2.5664427  59.4206240  39.5425487   2.6783121  59.9389736
  40.1119916   2.9051079  58.5547131  45.8848009  10.7577238  57.2367735
  45.7493684  11.6028774  57.6652583  46.4257822  10.9596516  56.4733669
  39.3377406   8.2752676  57.8095660  39.8501927   9.0695926  57.9601225
  39.9900119   7.5778966  57.7429262  41.1472291  11.3918432  59.8918413
  41.3238919  12.3136397  59.7039397  41.9429125  11.0776851  60.3212793
  42.2703607  12.9096606  65.8928756  42.8211032  12.7813669  65.1205750
  41.4315083  13.2091495  65.5423648  37.3026323   6.6041330  58.5855231
  38.1401545   7.0138339  58.3688938  37.4804591   5.6640772  58.5555425
  49.1990755   4.2716411  54.2739064  48.6837379   5.0421016  54.5127451
  48.9268064   3.5981547  54.8972125  54.1725029   7.0248766  56.2092237
  53.3954472   6.6859925  55.7647399  54.8516510   7.0301389  55.5347202
  47.4323490   8.3033726  57.7491799  46.9044852   7.5686486  57.4365036
  46.9310993   9.0808403  57.5031767  51.2221795   4.8527120  60.9162787
  51.7353677   5.4857111  61.4184497  51.8723019   4.2528315  60.5506147
  42.4911805   0.9957854  54.1294296  41.6549117   1.3332540  54.4503570
  42.3516575   0.8606833  53.1921433  45.5776091   6.1213937  50.7526772
  44.6703152   5.8903190  50.9517921  46.0747123   5.3251556  50.9400753
  48.4844169  14.8311444  53.6723458  47.8105868  15.1343141  54.2808416
  48.8709991  15.6340524  53.3228915  48.4837674   3.7267991  58.2923808
  49.2309493   4.2389388  57.9830930  48.7529263   3.4052043  59.1528201
  46.7564324   6.2226531  55.2750762  45.8475543   5.9385564  55.3723232
  46.7859408   6.6425610  54.4154069  51.9883591   9.8333121  59.0441929
  51.5345919   8.9924031  59.1007120  51.3577558  10.4694519  59.3816710
  50.4316531  11.6709618  59.9791748  50.7239505  12.2314675  59.2604113
  50.9415151  11.9638179  60.7344907  37.3252494   3.9432046  59.2565964
  37.1276894   3.3501406  58.5317031  36.7699158   3.6384256  59.9741903
  45.3049218   3.8355152  61.3760557  45.3597828   2.8828988  61.3003034
  44.4940420   3.9914591  61.8601856  46.4540412   7.7635275  52.6138840
  46.0159842   7.0471134  52.1544478  47.1950853   7.9911390  52.0523932
  43.2441578   2.4532212  59.1350936  42.4309443   2.7526382  59.5416128
  43.7400572   2.0587901  59.8525418  45.3950156  12.4489969  61.0685201
  45.3526335  12.6750815  60.1393733  46.3112855  12.2153343  61.2171002
  54.5713527   6.0392472  58.6715159  54.4331425   6.2294068  57.7436348
  54.2149745   6.8011855  59.1283210  43.5115957   9.3252998  60.8647164
  44.3056555   8.8303318  60.6629738  42.8007649   8.7970861  60.5014869
  48.3310801  11.7071093  65.2159531  48.3847823  12.2762030  65.9837247
  47.4625582  11.8772978  64.8513568  39.8198720   3.4696080  56.9406916
  38.8896308   3.4080535  57.1576878  39.9156192   2.9472032  56.1443557
  46.0887233   9.8982020  64.5445001  45.9498318   9.5300804  65.4170939
  45.3001829  10.4129659  64.3728958  46.6835385  14.9991116  55.8870537
  46.8587140  14.5279159  56.7016160  45.9968173  15.6256882  56.1151798
  47.6392448   9.2763622  61.9333838  47.3042280   9.2364392  62.8291488
  47.1396393   8.6108338  61.4604249  50.5751639   6.6219657  52.2070898
  49.9580810   5.8966485  52.1103951  50.1068128   7.3829017  51.8637972
  41.2496470  18.1480479  62.6610397  41.4893068  18.7799003  63.3389416
  40.4065666  17.7968519  62.9475757  45.7624332  13.9559601  65.0651901
  45.6894503  14.7614573  65.5771206  45.3201725  14.1551567  64.2399923
  45.5514111  13.1931371  58.5754723  44.7681633  13.7353052  58.6692947
  46.2506857  13.7105351  58.9748964  48.2223015  13.8546435  67.2210060
  48.9350987  14.4893900  67.1485961  47.7313044  13.9510301  66.4050062
  49.9440542   7.7597688  58.7927352  49.0096821   7.8799151  58.6232056
  50.1217211   6.8570155  58.5287361  43.2734929  11.6040879  68.0415631
  43.9744388  12.2377362  68.1945025  42.8030044  11.9455610  67.2811270
  51.3989325   9.9458829  56.3263538  51.6749169   9.8315423  57.2357412
  50.5293823   9.5476314  56.2875711  48.0343389  14.1945180  59.9696351
  48.2165783  13.3766835  60.4324104  48.8576375  14.4112872  59.5321241
  48.3685554  13.1213365  57.2311400  48.8973321  12.6105819  56.6181562
  48.6313774  12.8055895  58.0956933  38.8702647  11.1377234  64.9746733
  39.4556084  10.3920922  65.1074638  38.6727485  11.4481191  65.8583397
  41.7241302  14.1728481  59.9909176  41.0551677  14.6574609  59.5073216
  41.5854172  14.4197702  60.9052554  45.8646571  16.2072225  66.5891834
  46.4164879  16.3703846  67.3540919  46.2052764  16.7976663  65.9171859
  37.0928879   2.4346936  56.7705108  37.3882320   1.5257615  56.7172162
  36.1916915   2.4134676  56.4486110  49.0014958  14.1554200  63.5755516
  48.8766097  13.3543940  63.0666462  49.6594049  14.6500394  63.0869486
  51.0649866  11.9563221  65.2035066  50.1180202  11.8368572  65.1313393
  51.4132639  11.0685719  65.2861328  38.8216721   0.1161034  56.8944433
  38.4929427  -0.7641587  56.7119539  39.1756091   0.0608703  57.7820822
  48.0696300  11.7515937  61.4039419  47.9221262  10.8232644  61.5846989
  48.8949793  11.7736027  60.9196494  51.6730421  12.5744495  62.4904291
  52.5976969  12.3687357  62.3528743  51.5045725  12.3260897  63.3993633
  51.4625738  13.0930163  57.8466383  51.6362615  12.5276585  57.0940235
  51.9554629  13.8931058  57.6645873  52.4500910  12.4096927  54.9463281
  53.1451815  13.0303620  55.1650596  52.7924060  11.5592279  55.2215659
  54.3492333   9.8596633  56.4750612  54.8743657  10.1983906  55.7499932
  54.2614686   8.9243648  56.2913747  46.0112382  13.7730706  68.6040489
  46.3199508  13.5279853  69.4763188  46.8087864  13.9777345  68.1159359
  46.0332994  15.9268616  60.8345865  45.5937984  15.4344995  61.5278722
  46.7841111  15.3841584  60.5937940  38.5125333  12.1180157  60.8370493
  39.3383353  11.8183929  60.4569137  38.1619385  11.3487779  61.2860282
  43.4806866  11.4706625  62.9068167  42.8586875  10.8077330  62.6070395
  44.1511733  11.4967757  62.2241815  36.7133938  10.0366483  61.7959427
  35.8765846   9.6088658  61.6143428  36.6857583  10.2298927  62.7330218
  43.0420373  10.0210549  56.3826627  43.1908493  10.7046013  55.7293300
  43.8486817  10.0015639  56.8976083  40.7973006   6.0475726  57.3887696
  40.5519048   5.1438056  57.5867906  40.9668921   6.0492877  56.4467174
  40.0668654   1.7804084  54.8873858  39.3737899   1.8548439  54.2313894
  39.8220405   1.0164427  55.4095375  46.5415779  12.5158679  53.8538375
  45.9689746  13.1348866  53.4008847  47.1148572  13.0658041  54.3878297
  49.7613038  12.7995829  54.9846957  50.6943712  12.7341391  55.1879833
  49.6736251  13.6352096  54.5261490  52.3901055  12.1161699  51.9450905
  52.3114687  11.7821563  52.8386662  53.2110722  12.6083467  51.9442377
  46.9262577   3.8519492  51.1954427  47.8721682   3.7225700  51.2642845
  46.5476822   3.1134154  51.6723855  37.8108437   6.6496997  61.4267495
  37.7879125   6.7484684  60.4749378  38.1209074   7.4962148  61.7484661
  38.8246044  14.2492771  62.5584308  38.6900512  13.4893172  61.9922306
  38.4078106  14.9733671  62.0913096  49.9605007   9.4329695  51.5660883
  50.6640857   9.6379697  52.1818539  49.2367656  10.0006457  51.8309966
  50.7902817   5.1839556  57.6863153  50.7338019   5.6408108  56.8470785
  51.3431160   4.4230241  57.5085996  41.9815170  15.1462088  62.7702750
  41.8647554  16.0907521  62.6681441  41.1607616  14.8435650  63.1588549
  51.8691704   9.8712224  53.6159343  52.7037308   9.4393423  53.4336818
  51.7076047   9.6994238  54.5436237  51.5237596   6.3744337  54.9815682
  51.4686400   6.2088609  54.0404126  50.8983652   7.0820370  55.1377872
  43.0069684  15.7990350  65.9858679  43.9096931  15.8313961  66.3025174
  42.7807054  14.8690801  66.0005014  44.7623286  14.5521337  62.6468757
  43.8118917  14.5523198  62.5333130  45.0655772  13.8054071  62.1304792
  60.4975979  20.3881875  63.7114520  61.1354389  20.2688623  63.0077860
  60.3796822  21.3362719  63.7702472  57.3065686  20.3409303  63.6476044
  56.9684197  20.2250368  62.7596579  58.1755454  19.9400468  63.6277051
  53.1652501  22.1944780  59.6372935  52.6017366  22.1034717  58.8689223
  53.0504896  21.3744684  60.1175428  50.7116933  23.6895971  62.4757156
  51.5038225  23.3486796  62.0603455  50.9513583  23.7990946  63.3959309
  58.7452060  25.8615747  54.9487400  58.0940040  26.4469828  54.5621414
  59.5396423  26.3921942  55.0082438  52.6707687  22.9504885  55.3474535
  53.4438563  22.4033872  55.2087410  53.0233086  23.8149134  55.5588996
  54.5092730  24.2781267  68.5541434  54.2182596  25.1826898  68.4388100
  55.1449714  24.3197794  69.2685503  55.4348937  21.6558115  65.1442794
  56.0312509  21.4314138  64.4299756  55.4923908  20.9142861  65.7468241
  55.0073965  19.1097551  52.9792985  55.2599486  18.5879072  52.2176448
  54.0698524  18.9463696  53.0819668  60.0517248  18.1133329  60.7867728
  60.8380337  17.6952752  60.4358145  60.3155952  19.0179421  60.9549376
  60.2227325  23.5506179  55.4856385  59.5873158  23.6240806  56.1977289
  59.8924732  24.1399778  54.8075464  54.7270254  21.0125657  55.1817359
  54.6106512  20.3370560  55.8498444  54.8372514  20.5258031  54.3649513
  57.0701795  20.4735804  58.8864049  56.7060002  19.9466425  59.5976970
  57.9268911  20.0834273  58.7130534  56.7107282  15.5025703  53.8825397
  56.8781684  16.3705940  54.2495868  56.5204451  15.6652985  52.9586686
  59.4682615  23.9642682  65.5491228  59.1683338  24.8667721  65.4407035
  59.1233674  23.6974866  66.4012380  52.9195096  20.4156479  61.5827932
  51.9945593  20.2832693  61.7905624  53.1679510  21.1950698  62.0797874
  56.6896503  17.9583361  54.8672064  56.5696128  18.4040412  55.7057544
  55.9949091  18.3068679  54.3085602  50.2803907  20.0589753  62.4171721
  50.4096289  20.3124232  63.3311133  49.6001359  20.6517461  62.0976376
  54.4503395  30.7287003  58.5162195  54.3727424  31.6794828  58.5950676
  53.8465038  30.3832875  59.1737122  62.3881569  18.4304834  55.6952398
  63.2999425  18.6632221  55.5200096  61.8791216  19.0141878  55.1327477
  60.9951151  23.4130653  63.0865980  60.3660013  23.5776367  62.3842047
  60.6076813  23.8272262  63.8576944  64.8740383  24.3485090  60.4410343
  64.1891421  24.7283992  59.8907377  64.9584232  24.9580417  61.1742291
  56.5479113  23.1505061  60.3516065  57.0117458  23.4292764  59.5620687
  56.2835911  22.2488505  60.1689155  53.4403194  22.6976542  63.2895828
  54.0104551  23.1263811  62.6513312  54.0311306  22.4159127  63.9880014
  55.4847999  19.2728213  57.1605630  56.1872042  19.7249257  57.6279556
  55.1528627  18.6312032  57.7885523  49.2273333  17.5311766  62.4622763
  48.4372387  17.7869294  61.9862874  49.7184580  18.3460104  62.5674804
  51.1788078  17.8956345  59.4206240  50.3819242  18.0075039  59.9389736
  50.9513670  18.2342997  58.5547131  57.0093746  24.4201048  67.3688755
  57.0738178  24.8821455  68.2046927  56.3004670  23.7898413  67.4971065
  47.5111036  17.7842256  64.8937754  47.7619074  18.6689266  65.1595330
  48.0470584  17.6046858  64.1212846  56.7241764  26.0869156  57.2367735
  56.5887438  26.9320691  57.6652583  57.2651576  26.2888433  56.4733669
  50.1771161  23.6044594  57.8095660  50.6895682  24.3987844  57.9601225
  50.8293874  22.9070884  57.7429262  51.9866046  26.7210350  59.8918413
  52.1632674  27.6428315  59.7039397  52.7822879  26.4068769  60.3212793
  51.2718402  18.7674982  69.7680576  51.1571917  17.8660239  70.0687675
  50.4162920  19.0138679  69.4165393  53.1097361  28.2388524  65.8928756
  53.6604786  28.1105587  65.1205750  52.2708837  28.5383413  65.5423648
  48.1420078  21.9333248  58.5855231  48.9795300  22.3430256  58.3688938
  48.3198345  20.9932690  58.5555425  60.0384510  19.6008329  54.2739064
  59.5231133  20.3712933  54.5127451  59.7661818  18.9273465  54.8972125
  57.6231621  14.4458029  59.3324302  56.7673217  14.0564880  59.1529941
  58.0358573  14.5249990  58.4724087  55.3973653  12.0643102  62.7382043
  56.2626650  11.8685911  62.3787933  55.4651162  11.8353454  63.6651400
  65.0118784  22.3540683  56.2092237  64.2348227  22.0151843  55.7647399
  65.6910265  22.3593306  55.5347202  59.8270813  17.4735421  56.0998845
  59.5220949  17.7881570  56.9508988  60.7801255  17.5516841  56.1426178
  58.2717245  23.6325644  57.7491799  57.7438606  22.8978404  57.4365036
  57.7704748  24.4100320  57.5031767  53.0035972  14.2945310  60.1098410
  53.5779724  14.0720492  59.3771603  53.5906955  14.3634005  60.8627012
  62.0615550  20.1819037  60.9162787  62.5747431  20.8149029  61.4184497
  62.7116774  19.5820233  60.5506147  53.3305560  16.3249771  54.1294296
  52.4942872  16.6624458  54.4503570  53.1910329  16.1898751  53.1921433
  55.3058640  11.1686559  58.8373480  54.6523053  10.8535576  58.2130094
  55.2639114  10.5462300  59.5633303  56.4169845  21.4505854  50.7526772
  55.5096907  21.2195108  50.9517921  56.9140877  20.6543474  50.9400753
  59.3237924  30.1603361  53.6723458  58.6499623  30.4635058  54.2808416
  59.7103746  30.9632442  53.3228915  58.5396381  17.6568493  63.1621127
  57.6218942  17.8783440  63.0042815  58.9556524  17.7314803  62.3032835
  59.3231428  19.0559908  58.2923808  60.0703247  19.5681306  57.9830930
  59.5923018  18.7343961  59.1528201  57.5958078  21.5518449  55.2750762
  56.6869298  21.2677482  55.3723232  57.6253162  21.9717528  54.4154069
  62.8277346  25.1625039  59.0441929  62.3739673  24.3215949  59.1007120
  62.1971313  25.7986437  59.3816710  61.7710265  16.0917025  60.2742597
  61.0333022  15.5794411  60.6052839  62.0237039  15.6517406  59.4625874
  61.2710285  27.0001535  59.9791748  61.5633260  27.5606592  59.2604113
  61.7808906  27.2930096  60.7344907  48.1646249  19.2723963  59.2565964
  47.9670649  18.6793324  58.5317031  47.6092913  18.9676173  59.9741903
  56.1442973  19.1647070  61.3760557  56.1991582  18.2120906  61.3003034
  55.3334175  19.3206509  61.8601856  57.2934166  23.0927193  52.6138840
  56.8553596  22.3763052  52.1544478  58.0344607  23.3203308  52.0523932
  54.0835332  17.7824130  59.1350936  53.2703198  18.0818300  59.5416128
  54.5794327  17.3879818  59.8525418  56.2343910  27.7781886  61.0685201
  56.1920089  28.0042733  60.1393733  57.1506609  27.5445261  61.2171002
  65.4107281  21.3684390  58.6715159  65.2725180  21.5585986  57.7436348
  65.0543500  22.1303773  59.1283210  53.5749407  15.3542485  64.7512171
  54.2148787  15.2131244  64.0535134  52.7426938  15.0676998  64.3750773
  54.3509711  24.6544915  60.8647164  55.1450310  24.1595236  60.6629738
  53.6401403  24.1262779  60.5014869  59.1704556  27.0363011  65.2159531
  59.2241578  27.6053947  65.9837247  58.3019337  27.2064896  64.8513568
  50.6592475  18.7987997  56.9406916  49.7290063  18.7372453  57.1576878
  50.7549947  18.2763950  56.1443557  50.5778024  15.3242810  59.5285158
  50.8384841  16.2388143  59.4194318  51.3995196  14.8567253  59.6781771
  52.0502949  16.7380567  66.6983982  52.7226002  16.5297929  66.0496631
  51.2232735  16.5402653  66.2589215  56.9280987  25.2273937  64.5445001
  56.7892073  24.8592722  65.4170939  56.1395583  25.7421577  64.3728958
  57.5229139  30.3283034  55.8870537  57.6980895  29.8571077  56.7016160
  56.8361927  30.9548800  56.1151798  58.4786202  24.6055540  61.9333838
  58.1436035  24.5656310  62.8291488  57.9790148  23.9400256  61.4604249
  52.4530446  20.0123170  67.4586420  52.3150244  19.2803409  68.0597959
  53.3635370  19.9232070  67.1770607  61.4145394  21.9511574  52.2070898
  60.7974565  21.2258403  52.1103951  60.9461882  22.7120935  51.8637972
  55.0812747  19.7243129  66.9470099  55.7912365  19.0836322  66.9056718
  55.0382055  19.9756024  67.8696280  52.0890224  33.4772397  62.6610397
  52.3286823  34.1090921  63.3389416  51.2459421  33.1260437  62.9475757
  53.2043940  16.1696999  51.3292202  52.3273406  16.0485800  50.9654449
  53.6801693  15.3783077  51.0771091  44.7246080  20.9574159  61.4233709
  45.4117120  20.6435889  60.8354725  44.5694209  21.8615523  61.1500961
  49.5280802  15.8464355  65.8518733  49.4438991  15.2390025  65.1169143
  48.7063508  16.3373373  65.8528229  56.6018086  29.2851519  65.0651901
  56.5288258  30.0906491  65.5771206  56.1595479  29.4843485  64.2399923
  56.3907866  28.5223289  58.5754723  55.6075388  29.0644969  58.6692947
  57.0900611  29.0397269  58.9748964  59.7004516  14.3317919  61.2188928
  60.1973215  13.5787881  60.8989998  58.9291497  14.3682235  60.6532138
  59.0616770  29.1838353  67.2210060  59.7744742  29.8185818  67.1485961
  58.5706798  29.2802219  66.4050062  60.7834297  23.0889606  58.7927352
  59.8490575  23.2091068  58.6232056  60.9610965  22.1862073  58.5287361
  56.2839485  16.4735302  60.9460613  55.9137272  15.9206342  61.6341518
  56.7798577  15.8693435  60.3935613  64.1706848  18.9306925  59.3277386
  64.6367300  19.7634917  59.2537688  64.6214348  18.4651907  60.0322644
  54.1128683  26.9332797  68.0415631  54.8138143  27.5669280  68.1945025
  53.6423798  27.2747528  67.2811270  62.2383079  25.2750746  56.3263538
  62.5142923  25.1607341  57.2357412  61.3687578  24.8768231  56.2875711
  58.8737143  29.5237097  59.9696351  59.0559538  28.7058753  60.4324104
  59.6970129  29.7404789  59.5321241  59.2079309  28.4505282  57.2311400
  59.7367075  27.9397737  56.6181562  59.4707528  28.1347813  58.0956933
  49.7096401  26.4669152  64.9746733  50.2949838  25.7212840  65.1074638
  49.5121240  26.7773108  65.8583397  52.5635057  29.5020399  59.9909176
  51.8945432  29.9866527  59.5073216  52.4247926  29.7489619  60.9052554
  44.3014056  19.0374752  63.6951177  44.3398156  18.5038343  64.4888295
  43.7954349  18.5109957  63.0762154  56.7040325  31.5364143  66.5891834
  57.2558633  31.6995764  67.3540919  57.0446519  32.1268580  65.9171859
  51.6804818  13.8839292  67.1913719  51.7446145  14.7454123  66.7791117
  51.6171939  13.2713294  66.4586077  47.9322634  17.7638854  56.7705108
  48.2276075  16.8549532  56.7172162  47.0310669  17.7426593  56.4486110
  59.8408712  29.4846118  63.5755516  59.7159852  28.6835858  63.0666462
  60.4987804  29.9792311  63.0869486  51.4616881  15.8394851  62.7532657
  50.7403466  16.4530818  62.6140130  52.2510136  16.3752615  62.6749303
  61.9043621  27.2855138  65.2035066  60.9573956  27.1660489  65.1313393
  62.2526394  26.3977636  65.2861328  49.6610475  15.4452952  56.8944433
  49.3323181  14.5650331  56.7119539  50.0149846  15.3900620  57.7820822
  58.9090054  27.0807854  61.4039419  58.7615017  26.1524562  61.5846989
  59.7343548  27.1027945  60.9196494  52.7752298  15.7325921  57.2619911
  53.1148371  16.2611843  56.5398519  53.2224419  16.0706328  58.0378477
  62.5124176  27.9036413  62.4904291  63.4370723  27.6979274  62.3528743
  62.3439479  27.6552814  63.3993633  54.7620446  14.2300543  55.4613204
  55.4828808  14.6081796  54.9576920  54.1385750  14.9489420  55.5648182
  58.9051568  14.9345692  56.3971536  59.1215183  15.8170330  56.0960364
  58.4245636  14.5431905  55.6677178  53.6450790  17.8931405  62.9742280
  53.4995371  18.2071708  63.8666562  53.1675993  18.5116306  62.4213179
  55.5047173  14.8833953  63.0223170  55.4908741  13.9875047  62.6855468
  56.2219601  14.8904617  63.6561456  62.3019492  28.4222081  57.8466383
  62.4756370  27.8568503  57.0940235  62.7948383  29.2222975  57.6645873
  48.1196452  20.4336750  65.9129942  47.5749920  21.2096558  66.0450216
  48.9975802  20.7807554  65.7549063  54.9084069  13.7648334  58.2910740
  55.0299980  12.8364980  58.4901628  54.6186111  13.7787019  57.3789056
  63.2894665  27.7388845  54.9463281  63.9845569  28.3595538  55.1650596
  63.6317815  26.8884196  55.2215659  48.9062474  19.5606646  68.8060099
  48.1644210  19.7089281  69.3924729  48.5855218  19.8214912  67.9426848
  65.1886088  25.1888551  56.4750612  65.7137412  25.5275823  55.7499932
  65.1008440  24.2535566  56.2913747  56.8506136  29.1022624  68.6040489
  57.1593263  28.8571771  69.4763188  57.6481618  29.3069263  68.1159359
  56.8726749  31.2560534  60.8345865  56.4331739  30.7636912  61.5278722
  57.6234865  30.7133501  60.5937940  49.3519087  27.4472075  60.8370493
  50.1777107  27.1475847  60.4569137  49.0013139  26.6779697  61.2860282
  54.3200621  26.7998543  62.9068167  53.6980630  26.1369248  62.6070395
  54.9905488  26.8259675  62.2241815  47.5527693  25.3658401  61.7959427
  46.7159601  24.9380575  61.6143428  47.5251338  25.5590844  62.7330218
  53.8814128  25.3502466  56.3826627  54.0302248  26.0337931  55.7293300
  54.6880571  25.3307556  56.8976083  51.6366761  21.3767644  57.3887696
  51.3912802  20.4729974  57.5867906  51.8062675  21.3784794  56.4467174
  50.9062408  17.1096001  54.8873858  50.2131653  17.1840356  54.2313894
  50.6614160  16.3456345  55.4095375  57.3809533  27.8450597  53.8538375
  56.8083500  28.4640784  53.4008847  57.9542327  28.3949958  54.3878297
  60.6006793  28.1287747  54.9846957  61.5337466  28.0633308  55.1879833
  60.5130006  28.9644014  54.5261490  63.2294810  27.4453617  51.9450905
  63.1508441  27.1113481  52.8386662  64.0504476  27.9375385  51.9442377
  57.7656332  19.1811409  51.1954427  58.7115436  19.0517618  51.2642845
  57.3870577  18.4426071  51.6723855  55.9499249  17.1061386  51.1309312
  55.0430704  16.8094499  51.2072026  56.2275230  16.8091204  50.2643599
  46.8677189  18.4267749  61.5808359  46.5479973  17.5733057  61.2882733
  46.3210617  18.6416327  62.3366326  50.6457097  21.1430190  65.2977865
  50.8643106  22.0747298  65.3165899  51.0582871  20.7838165  66.0832669
  57.5661314  11.6498276  57.2853554  56.7562043  11.3045360  57.6608800
  58.2545731  11.3405819  57.8741165  59.4951863  10.7276322  58.9077850
  60.0482901  11.1471776  59.5667873  59.7321949   9.8012070  58.9500806
  54.7198033  13.9648321  51.2721292  55.5817197  14.2903219  51.5317109
  54.9048378  13.1779817  50.7594357  46.7365449  22.0470661  63.5501480
  46.0428921  21.6324613  63.0371435  47.4838440  22.0891197  62.9534899
  48.6502192  21.9788914  61.4267495  48.6272880  22.0776602  60.4749378
  48.9602828  22.8254065  61.7484661  51.3089570  24.0365070  65.5414110
  52.2632823  24.0049012  65.4744041  51.1102093  23.5755693  66.3564336
  51.8988952  22.6066186  68.1084907  52.7181841  23.1010264  68.1319745
  52.1725759  21.6898154  68.0802475  61.6555548  14.9976938  57.4712863
  60.7681403  15.2826588  57.2533058  62.0709537  14.8370701  56.6240140
  49.6639798  29.5784689  62.5584308  49.5294266  28.8185090  61.9922306
  49.2471861  30.3025589  62.0913096  60.7998761  24.7621613  51.5660883
  61.5034611  24.9671615  52.1818539  60.0761410  25.3298374  51.8309966
  61.6296572  20.5131474  57.6863153  61.5731773  20.9700025  56.8470785
  62.1824914  19.7522158  57.5085996  52.8208924  30.4754006  62.7702750
  52.7041308  31.4199439  62.6681441  52.0001370  30.1727568  63.1588549
  62.7085459  25.2004142  53.6159343  63.5431063  24.7685340  53.4336818
  62.5469802  25.0286155  54.5436237  62.3631351  21.7036255  54.9815682
  62.3080155  21.5380526  54.0404126  61.7377406  22.4112288  55.1377872
  47.1523866  16.9404319  68.8077104  47.7982730  16.4303273  69.2964330
  46.9441017  17.6773001  69.3820530  55.6727476  11.2044364  54.5601001
  55.6606146  12.1486204  54.7169272  56.5650898  11.0214509  54.2660462
  53.8463438  31.1282268  65.9858679  54.7490685  31.1605878  66.3025174
  53.6200808  30.1982719  66.0005014  55.6017040  29.8813254  62.6468757
  54.6512671  29.8815116  62.5333130  55.9049526  29.1345989  62.1304792
  68.1459440  35.6701221  63.6476044  67.8077952  35.5542286  62.7596579
  69.0149208  35.2692386  63.6277051  64.0046256  37.5236697  59.6372935
  63.4411121  37.4326634  58.8689223  63.8898651  36.7036602  60.1175428
  61.5510688  39.0187889  62.4757156  62.3431980  38.6778714  62.0603455
  61.7907338  39.1282864  63.3959309  69.5845815  41.1907665  54.9487400
  68.9333794  41.7761745  54.5621414  70.3790177  41.7213860  55.0082438
  63.5101442  38.2796802  55.3474535  64.2832318  37.7325789  55.2087410
  63.8626841  39.1441052  55.5588996  66.2742691  36.9850033  65.1442794
  66.8706263  36.7606055  64.4299756  66.3317663  36.2434778  65.7468241
  65.8467720  34.4389468  52.9792985  66.0993240  33.9170990  52.2176448
  64.9092279  34.2755614  53.0819668  71.0621080  38.8798097  55.4856385
  70.4266913  38.9532724  56.1977289  70.7318486  39.4691696  54.8075464
  65.5664008  36.3417574  55.1817359  65.4500266  35.6662478  55.8498444
  65.6766268  35.8549948  54.3649513  67.9095549  35.8027721  58.8864049
  67.5453756  35.2758342  59.5976970  68.7662665  35.4126190  58.7130534
  67.5501036  30.8317621  53.8825397  67.7175439  31.6997858  54.2495868
  67.3598205  30.9944903  52.9586686  63.7588851  35.7448397  61.5827932
  62.8339347  35.6124611  61.7905624  64.0073264  36.5242616  62.0797874
  67.5290257  33.2875279  54.8672064  67.4089882  33.7332329  55.7057544
  66.8342845  33.6360596  54.3085602  61.1197662  35.3881670  62.4171721
  61.2490043  35.6416149  63.3311133  60.4395113  35.9809378  62.0976376
  65.2897149  46.0578920  58.5162195  65.2121179  47.0086745  58.5950676
  64.6858793  45.7124793  59.1737122  67.3872867  38.4796978  60.3516065
  67.8511213  38.7584681  59.5620687  67.1229665  37.5780423  60.1689155
  64.2796948  38.0268460  63.2895828  64.8498305  38.4555728  62.6513312
  64.8705060  37.7451045  63.9880014  66.3241753  34.6020131  57.1605630
  67.0265797  35.0541174  57.6279556  65.9922382  33.9603950  57.7885523
  60.0667087  32.8603683  62.4622763  59.2766141  33.1161212  61.9862874
  60.5578335  33.6752021  62.5674804  62.0181833  33.2248263  59.4206240
  61.2212996  33.3366957  59.9389736  61.7907425  33.5634915  58.5547131
  58.3504790  33.1134174  64.8937754  58.6012829  33.9981184  65.1595330
  58.8864339  32.9338775  64.1212846  67.5635518  41.4161073  57.2367735
  67.4281193  42.2612609  57.6652583  68.1045331  41.6180351  56.4733669
  61.0164915  38.9336511  57.8095660  61.5289436  39.7279762  57.9601225
  61.6687628  38.2362802  57.7429262  62.8259800  42.0502268  59.8918413
  63.0026428  42.9720232  59.7039397  63.6216634  41.7360687  60.3212793
  58.9813832  37.2625166  58.5855231  59.8189054  37.6722174  58.3688938
  59.1592100  36.3224608  58.5555425  70.8778264  34.9300246  54.2739064
  70.3624888  35.7004851  54.5127451  70.6055573  34.2565382  54.8972125
  68.4625375  29.7749947  59.3324302  67.6066972  29.3856797  59.1529941
  68.8752327  29.8541908  58.4724087  66.2367408  27.3935020  62.7382043
  67.1020405  27.1977829  62.3787933  66.3044917  27.1645372  63.6651400
  69.1110999  38.9617562  57.7491799  68.5832361  38.2270321  57.4365036
  68.6098502  39.7392238  57.5031767  63.8429727  29.6237228  60.1098410
  64.4173479  29.4012409  59.3771603  64.4300709  29.6925922  60.8627012
  64.1699314  31.6541689  54.1294296  63.3336626  31.9916376  54.4503570
  64.0304084  31.5190669  53.1921433  66.1452395  26.4978477  58.8373480
  65.4916807  26.1827494  58.2130094  66.1032869  25.8754217  59.5633303
  67.2563600  36.7797772  50.7526772  66.3490661  36.5487025  50.9517921
  67.7534632  35.9835391  50.9400753  70.1631678  45.4895279  53.6723458
  69.4893377  45.7926976  54.2808416  70.5497500  46.2924360  53.3228915
  69.3790135  32.9860410  63.1621127  68.4612696  33.2075357  63.0042815
  69.7950279  33.0606721  62.3032835  70.1625183  34.3851826  58.2923808
  70.9097002  34.8973223  57.9830930  70.4316772  34.0635879  59.1528201
  68.4351833  36.8810367  55.2750762  67.5263052  36.5969400  55.3723232
  68.4646917  37.3009445  54.4154069  59.0040003  34.6015881  59.2565964
  58.8064403  34.0085242  58.5317031  58.4486667  34.2968091  59.9741903
  66.9836727  34.4938987  61.3760557  67.0385337  33.5412824  61.3003034
  66.1727929  34.6498427  61.8601856  68.1327921  38.4219111  52.6138840
  67.6947351  37.7054969  52.1544478  68.8738362  38.6495225  52.0523932
  64.9229087  33.1116047  59.1350936  64.1096952  33.4110218  59.5416128
  65.4188081  32.7171736  59.8525418  67.0737665  43.1073804  61.0685201
  67.0313844  43.3334650  60.1393733  67.9900364  42.8737179  61.2171002
  64.4143162  30.6834403  64.7512171  65.0542541  30.5423162  64.0535134
  63.5820692  30.3968916  64.3750773  65.1903466  39.9836833  60.8647164
  65.9844064  39.4887153  60.6629738  64.4795158  39.4554696  60.5014869
  61.4986229  34.1279915  56.9406916  60.5683817  34.0664370  57.1576878
  61.5943701  33.6055868  56.1443557  61.4171778  30.6534728  59.5285158
  61.6778595  31.5680061  59.4194318  62.2388950  30.1859170  59.6781771
  62.8896703  32.0672485  66.6983982  63.5619757  31.8589847  66.0496631
  62.0626490  31.8694571  66.2589215  68.3622894  45.6574952  55.8870537
  68.5374649  45.1862995  56.7016160  67.6755682  46.2840718  56.1151798
  69.3179957  39.9347458  61.9333838  68.9829789  39.8948228  62.8291488
  68.8183902  39.2692174  61.4604249  63.2924201  35.3415088  67.4586420
  63.1543999  34.6095327  68.0597959  64.2029124  35.2523988  67.1770607
  64.0437694  31.4988916  51.3292202  63.1667161  31.3777717  50.9654449
  64.5195447  30.7074995  51.0771091  55.5639834  36.2866076  61.4233709
  56.2510874  35.9727806  60.8354725  55.4087963  37.1907441  61.1500961
  60.3674557  31.1756273  65.8518733  60.2832745  30.5681942  65.1169143
  59.5457263  31.6665291  65.8528229  67.2301620  43.8515207  58.5754723
  66.4469142  44.3936887  58.6692947  67.9294366  44.3689186  58.9748964
  70.5398270  29.6609836  61.2188928  71.0366970  28.9079799  60.8989998
  69.7685252  29.6974153  60.6532138  67.1233239  31.8027219  60.9460613
  66.7531027  31.2498260  61.6341518  67.6192332  31.1985353  60.3935613
  69.7130898  44.8529015  59.9696351  69.8953292  44.0350671  60.4324104
  70.5363884  45.0696707  59.5321241  70.0473063  43.7797200  57.2311400
  70.5760830  43.2689655  56.6181562  70.3101283  43.4639730  58.0956933
  63.4028811  44.8312317  59.9909176  62.7339186  45.3158444  59.5073216
  63.2641681  45.0781537  60.9052554  55.1407811  34.3666670  63.6951177
  55.1791910  33.8330260  64.4888295  54.6348103  33.8401875  63.0762154
  62.5198573  29.2131210  67.1913719  62.5839899  30.0746041  66.7791117
  62.4565693  28.6005212  66.4586077  58.7716388  33.0930772  56.7705108
  59.0669829  32.1841450  56.7172162  57.8704424  33.0718511  56.4486110
  62.3010635  31.1686768  62.7532657  61.5797221  31.7822736  62.6140130
  63.0903891  31.7044533  62.6749303  60.5004230  30.7744869  56.8944433
  60.1716936  29.8942248  56.7119539  60.8543600  30.7192538  57.7820822
  69.7483809  42.4099772  61.4039419  69.6008771  41.4816479  61.5846989
  70.5737302  42.4319863  60.9196494  63.6146053  31.0617839  57.2619911
  63.9542125  31.5903760  56.5398519  64.0618173  31.3998245  58.0378477
  65.6014200  29.5592461  55.4613204  66.3222563  29.9373714  54.9576920
  64.9779504  30.2781338  55.5648182  69.7445323  30.2637610  56.3971536
  69.9608937  31.1462248  56.0960364  69.2639390  29.8723823  55.6677178
  64.4844544  33.2223323  62.9742280  64.3389125  33.5363626  63.8666562
  64.0069748  33.8408223  62.4213179  66.3440927  30.2125871  63.0223170
  66.3302496  29.3166964  62.6855468  67.0613355  30.2196535  63.6561456
  58.9590206  35.7628667  65.9129942  58.4143675  36.5388475  66.0450216
  59.8369556  36.1099472  65.7549063  65.7477823  29.0940251  58.2910740
  65.8693734  28.1656897  58.4901628  65.4579865  29.1078937  57.3789056
  59.7456228  34.8898564  68.8060099  59.0037964  35.0381199  69.3924729
  59.4248973  35.1506829  67.9426848  60.1912842  42.7763992  60.8370493
  61.0170862  42.4767764  60.4569137  59.8406894  42.0071615  61.2860282
  65.1594375  42.1290461  62.9068167  64.5374384  41.4661166  62.6070395
  65.8299242  42.1551592  62.2241815  58.3921447  40.6950319  61.7959427
  57.5553355  40.2672493  61.6143428  58.3645092  40.8882762  62.7330218
  64.7207882  40.6794384  56.3826627  64.8696002  41.3629848  55.7293300
  65.5274326  40.6599474  56.8976083  62.4760515  36.7059562  57.3887696
  62.2306557  35.8021892  57.5867906  62.6456430  36.7076712  56.4467174
  61.7456163  32.4387919  54.8873858  61.0525408  32.5132274  54.2313894
  61.5007914  31.6748263  55.4095375  68.2203288  43.1742514  53.8538375
  67.6477255  43.7932701  53.4008847  68.7936081  43.7241876  54.3878297
  68.6050086  34.5103327  51.1954427  69.5509191  34.3809535  51.2642845
  68.2264331  33.7717989  51.6723855  66.7893003  32.4353303  51.1309312
  65.8824459  32.1386416  51.2072026  67.0668984  32.1383122  50.2643599
  57.7070944  33.7559667  61.5808359  57.3873728  32.9024975  61.2882733
  57.1604372  33.9708245  62.3366326  61.4850851  36.4722108  65.2977865
  61.7036861  37.4039216  65.3165899  61.8976625  36.1130082  66.0832669
  68.4055069  26.9790193  57.2853554  67.5955797  26.6337278  57.6608800
  69.0939486  26.6697737  57.8741165  70.3345617  26.0568240  58.9077850
  70.8876656  26.4763693  59.5667873  70.5715704  25.1303988  58.9500806
  65.5591788  29.2940239  51.2721292  66.4210952  29.6195137  51.5317109
  65.7442132  28.5071735  50.7594357  57.5759204  37.3762578  63.5501480
  56.8822675  36.9616531  63.0371435  58.3232195  37.4183115  62.9534899
  59.4895946  37.3080832  61.4267495  59.4666634  37.4068519  60.4749378
  59.7996583  38.1545983  61.7484661  62.1483324  39.3656987  65.5414110
  63.1026578  39.3340930  65.4744041  61.9495848  38.9047611  66.3564336
  60.5033553  44.9076607  62.5584308  60.3688021  44.1477008  61.9922306
  60.0865615  45.6317507  62.0913096  57.9917620  32.2696237  68.8077104
  58.6376484  31.7595191  69.2964330  57.7834772  33.0064919  69.3820530
  66.5121231  26.5336282  54.5601001  66.4999901  27.4778122  54.7169272
  67.4044653  26.3506427  54.2660462  69.6110143  48.4222689  56.7705108
  69.9063584  47.5133368  56.7172162  68.7098178  48.4010429  56.4486110
  54.4503396   7.7349125  45.2407502  54.3727426   8.6856950  45.3195982
  53.8465039   7.3894998  45.8982428  53.1097362   5.2450646  52.6174062
  53.6604787   5.1167710  51.8451056  52.2708838   5.5445535  52.2668955
  59.3237925   7.1665484  40.3968765  58.6499624   7.4697181  41.0053722
  59.7103747   7.9694564  40.0474222  57.5229140   7.3345156  42.6115844
  57.6980896   6.8633200  43.4261466  56.8361928   7.9610923  42.8397104
  52.0890226  10.4834519  49.3855704  52.3286824  11.1153043  50.0634722
  51.2459422  10.1322559  49.6721063  56.6018087   6.2913642  51.7897208
  56.5288259   7.0968613  52.3016512  56.1595481   6.4905608  50.9645229
  56.3907867   5.5285412  45.3000029  55.6075389   6.0707092  45.3938254
  57.0900612   6.0459391  45.6994271  52.5635058   6.5082522  46.7154482
  51.8945433   6.9928649  46.2318523  52.4247928   6.7551742  47.6297861
  56.7040326   8.5426265  53.3137141  57.2558634   8.7057887  54.0786226
  57.0446520   9.1330703  52.6417166  56.8506138   6.1084747  55.3285795
  57.1593264   5.8633894  56.2008495  57.6481620   6.3131385  54.8404665
  56.8726750   8.2622656  47.5591172  56.4331740   7.7699035  48.2524028
  57.6234867   7.7195624  47.3183247  49.3519089   4.4534197  47.5615800
  50.1777109   4.1537969  47.1814443  49.0013141   3.6841820  48.0105588
  49.6639800   6.5846812  49.2829614  49.5294268   5.8247212  48.7167612
  49.2471862   7.3087711  48.8158403  52.8208925   7.4816129  49.4948057
  52.7041310   8.4261561  49.3926747  52.0001372   7.1789690  49.8833856
  53.8463440   8.1344391  52.7103985  54.7490686   8.1668001  53.0270480
  53.6200810   7.2044841  52.7250321  55.6017042   6.8875377  49.3714064
  54.6512673   6.8877239  49.2578436  55.9049528   6.1408112  48.8550099
  68.1459441  12.6763344  50.3721351  67.8077953  12.5604408  49.4841886
  69.0149210  12.2754509  50.3522357  64.0046257  14.5298820  46.3618242
  63.4411122  14.4388757  45.5934530  63.8898652  13.7098724  46.8420735
  61.5510689  16.0250012  49.2002462  62.3431981  15.6840836  48.7848762
  61.7907339  16.1344987  50.1204616  69.5845816  18.1969788  41.6732707
  68.9333796  18.7823868  41.2866721  70.3790179  18.7275983  41.7327744
  63.5101443  15.2858925  42.0719841  64.2832319  14.7387912  41.9332717
  63.8626842  16.1503174  42.2834303  65.3486486  16.6135307  55.2786741
  65.0576351  17.5180938  55.1633407  65.9843470  16.6551835  55.9930810
  66.2742692  13.9912156  51.8688100  66.8706265  13.7668178  51.1545063
  66.3317664  13.2496901  52.4713548  65.8467721  11.4451591  39.7038291
  66.0993241  10.9233112  38.9421754  64.9092280  11.2817736  39.8064975
  71.0621081  15.8860220  42.2101691  70.4266914  15.9594846  42.9222596
  70.7318487  16.4753818  41.5320770  65.5664010  13.3479697  41.9062666
  65.4500268  12.6724600  42.5743750  65.6766269  12.8612071  41.0894819
  67.9095550  12.8089844  45.6109355  67.5453758  12.2820465  46.3222277
  68.7662666  12.4188313  45.4375841  70.3076371  16.2996723  52.2736534
  70.0077094  17.2021761  52.1652341  69.9627430  16.0328906  53.1257687
  63.7588852  12.7510519  48.3073239  62.8339349  12.6186734  48.5150930
  64.0073265  13.5304739  48.8043181  67.5290258  10.2937401  41.5917371
  67.4089883  10.7394452  42.4302851  66.8342847  10.6422719  41.0330909
  61.1197663  12.3943793  49.1417028  61.2490044  12.6478272  50.0556439
  60.4395114  12.9871501  48.8221683  65.2897150  23.0641043  45.2407502
  65.2121180  24.0148868  45.3195982  64.6858794  22.7186915  45.8982428
  67.3872869  15.4859101  47.0761371  67.8511214  15.7646804  46.2865994
  67.1229667  14.5842545  46.8934462  64.2796950  15.0330582  50.0141135
  64.8498307  15.4617851  49.3758619  64.8705062  14.7513167  50.7125320
  66.3241755  11.6082253  43.8850936  67.0265798  12.0603297  44.3524863
  65.9922383  10.9666072  44.5130830  60.0667089   9.8665806  49.1868070
  59.2766143  10.1223334  48.7108181  60.5578336  10.6814144  49.2920111
  62.0181834  10.2310385  46.1451547  61.2212997  10.3429079  46.6635042
  61.7907426  10.5697037  45.2792437  67.8487502  16.7555088  54.0934061
  67.9131934  17.2175496  54.9292233  67.1398426  16.1252453  54.2216371
  58.3504792  10.1196296  51.6183061  58.6012830  11.0043306  51.8840637
  58.8864340   9.9400898  50.8458153  67.5635519  18.4223196  43.9613042
  67.4281194  19.2674732  44.3897889  68.1045332  18.6242474  43.1978975
  61.0164917  15.9398634  44.5340967  61.5289437  16.7341884  44.6846531
  61.6687630  15.2424924  44.4674568  62.8259801  19.0564390  46.6163720
  63.0026430  19.9782355  46.4284704  63.6216635  18.7422809  47.0458100
  62.1112158  11.1029022  56.4925883  61.9965673  10.2014279  56.7932982
  61.2556676  11.3492719  56.1410700  63.9491117  20.5742564  52.6174062
  64.4998542  20.4459627  51.8451056  63.1102593  20.8737453  52.2668955
  58.9813833  14.2687288  45.3100537  59.8189055  14.6784297  45.0934245
  59.1592101  13.3286730  45.2800731  70.8778266  11.9362369  40.9984370
  70.3624889  12.7066974  41.2372758  70.6055574  11.2627505  41.6217432
  69.1111001  15.9679684  44.4737105  68.5832362  15.2332444  44.1610343
  68.6098503  16.7454361  44.2277074  64.1699315   8.6603812  40.8539602
  63.3336628   8.9978498  41.1748877  64.0304085   8.5252791  39.9166739
  67.2563601  13.7859895  37.4772078  66.3490663  13.5549148  37.6763227
  67.7534633  12.9897514  37.6646060  70.1631680  22.4957402  40.3968765
  69.4893378  22.7989099  41.0053722  70.5497502  23.2986482  40.0474222
  70.1625184  11.3913949  45.0169114  70.9097003  11.9035346  44.7076236
  70.4316774  11.0698001  45.8773508  68.4351834  13.8872489  41.9996069
  67.5263053  13.6031522  42.0968538  68.4646918  14.3071568  41.1399375
  59.0040005  11.6078004  45.9811271  58.8064404  11.0147364  45.2562337
  58.4486669  11.3030214  46.6987210  66.9836728  11.5001110  48.1005864
  67.0385338  10.5474946  48.0248340  66.1727930  11.6560549  48.5847162
  68.1327922  15.4281233  39.3384147  67.6947352  14.7117092  38.8789784
  68.8738363  15.6557348  38.7769238  64.9229088  10.1178170  45.8596243
  64.1096954  10.4172340  46.2661435  65.4188082   9.7233859  46.5770725
  67.0737666  20.1135927  47.7930507  67.0313845  20.3396773  46.8639039
  67.9900365  19.8799301  47.9416309  65.1903467  16.9898956  47.5892470
  65.9844065  16.4949276  47.3875045  64.4795159  16.4616819  47.2260176
  70.0098311  19.3717051  51.9404838  70.0635334  19.9407988  52.7082554
  69.1413093  19.5418936  51.5758875  61.4986230  11.1342037  43.6652223
  60.5683818  11.0726493  43.8822185  61.5943702  10.6117990  42.8688864
  62.8896705   9.0734607  53.4229289  63.5619758   8.8651970  52.7741938
  62.0626491   8.8756693  52.9834521  67.7674743  17.5627978  51.2690307
  67.6285829  17.1946762  52.1416245  66.9789339  18.0775617  51.0974265
  68.3622895  22.6637074  42.6115844  68.5374651  22.1925117  43.4261466
  67.6755683  23.2902840  42.8397104  69.3179958  16.9409580  48.6579145
  68.9829791  16.9010350  49.5536795  68.8183904  16.2754296  48.1849555
  63.2924202  12.3477210  54.1831726  63.1544000  11.6157449  54.7843265
  64.2029125  12.2586111  53.9015914  65.9206503  12.0597170  53.6715406
  66.6306121  11.4190362  53.6302024  65.8775811  12.3110065  54.5941587
  62.9283980  25.8126437  49.3855704  63.1680578  26.4444961  50.0634722
  62.0853177  25.4614477  49.6721063  55.5639836  13.2928199  48.1479016
  56.2510876  12.9789929  47.5600031  55.4087964  14.1969563  47.8746268
  60.3674558   8.1818395  52.5764040  60.2832747   7.5744065  51.8414450
  59.5457264   8.6727414  52.5773536  67.4411842  21.6205559  51.7897208
  67.3682013  22.4260531  52.3016512  66.9989235  21.8197525  50.9645229
  67.2301622  20.8577329  45.3000029  66.4469143  21.3999010  45.3938254
  67.9294367  21.3751309  45.6994271  69.9010525  21.5192393  53.9455367
  70.6138498  22.1539858  53.8731268  69.4100554  21.6156259  53.1295368
  64.9522439  19.2686837  54.7660937  65.6531899  19.9023320  54.9190332
  64.4817554  19.6101568  54.0056577  69.7130899  21.8591138  46.6941658
  69.8953293  21.0412793  47.1569410  70.5363885  22.0758830  46.2566548
  70.0473064  20.7859323  43.9556707  70.5760831  20.2751777  43.3426869
  70.3101284  20.4701853  44.8202240  60.5490157  18.8023192  51.6992040
  61.1343594  18.0566880  51.8319944  60.3514996  19.1127149  52.5828704
  63.4028812  21.8374439  46.7154482  62.7339188  22.3220567  46.2318523
  63.2641682  22.0843660  47.6297861  55.1407812  11.3728792  50.4196483
  55.1791911  10.8392383  51.2133601  54.6348105  10.8463998  49.8007460
  67.5434081  23.8718183  53.3137141  68.0952389  24.0349804  54.0786226
  67.8840274  24.4622621  52.6417166  58.7716389  10.0992894  43.4950415
  59.0669830   9.1903573  43.4417468  57.8704425  10.0780634  43.1731417
  62.3010636   8.1748891  49.4777963  61.5797222   8.7884859  49.3385437
  63.0903892   8.7106656  49.3994609  60.5004231   7.7806992  43.6189740
  60.1716937   6.9004371  43.4364846  60.8543602   7.7254661  44.5066129
  69.7483810  19.4161895  48.1284725  69.6008772  18.4878602  48.3092295
  70.5737303  19.4381985  47.6441801  64.4844546  10.2285446  49.6987587
  64.3389126  10.5425749  50.5911869  64.0069749  10.8470346  49.1458486
  58.9590208  12.7690790  52.6375248  58.4143676  13.5450598  52.7695523
  59.8369558  13.1161594  52.4794370  59.7456230  11.8960686  55.5305405
  59.0037966  12.0443322  56.1170036  59.4248974  12.1568952  54.6672155
  67.6899892  21.4376664  55.3285795  67.9987019  21.1925811  56.2008495
  68.4875374  21.6423303  54.8404665  67.7120504  23.5914574  47.5591172
  67.2725495  23.0990953  48.2524028  68.4628621  23.0487542  47.3183247
  60.1912843  19.7826115  47.5615800  61.0170863  19.4829887  47.1814443
  59.8406895  19.0133737  48.0105588  65.1594376  19.1352583  49.6313473
  64.5374386  18.4723288  49.3315701  65.8299243  19.1613715  48.9487121
  58.3921448  17.7012441  48.5204733  57.5553357  17.2734616  48.3388735
  58.3645094  17.8944885  49.4575525  64.7207883  17.6856506  43.1071934
  64.8696004  18.3691971  42.4538607  65.5274327  17.6661597  43.6221390
  62.4760516  13.7121684  44.1133003  62.2306558  12.8084014  44.3113213
  62.6456431  13.7138835  43.1712481  61.7456164   9.4450042  41.6119164
  61.0525409   9.5194397  40.9559200  61.5007916   8.6810385  42.1340681
  68.2203289  20.1804637  40.5783681  67.6477256  20.7994824  40.1254153
  68.7936083  20.7303999  41.1123603  68.6050087  11.5165450  37.9199734
  69.5509192  11.3871658  37.9888152  68.2264332  10.7780112  38.3969162
  57.7070945  10.7621789  48.3053665  57.3873729   9.9087098  48.0128039
  57.1604373  10.9770368  49.0611633  61.4850852  13.4784230  52.0223172
  61.7036862  14.4101338  52.0411206  61.8976626  13.1192205  52.8077976
  57.5759205  14.3824701  50.2746787  56.8822676  13.9678654  49.7616741
  58.3232196  14.4245237  49.6780206  59.4895947  14.3142955  48.1512802
  59.4666636  14.4130642  47.1994685  59.7996584  15.1608106  48.4729968
  62.1483325  16.3719110  52.2659416  63.1026579  16.3403052  52.1989348
  61.9495849  15.9109734  53.0809642  62.7382707  14.9420226  54.8330214
  63.5575596  15.4364305  54.8565051  63.0119515  14.0252194  54.8047782
  60.5033554  21.9138729  49.2829614  60.3688022  21.1539130  48.7167612
  60.0865616  22.6379629  48.8158403  63.6602680  22.8108046  49.4948057
  63.5435064  23.7553479  49.3926747  62.8395126  22.5081608  49.8833856
  57.9917622   9.2758360  55.5322411  58.6376485   8.7657314  56.0209636
  57.7834773  10.0127041  56.1065836  64.6857194  23.4636308  52.7103985
  65.5884441  23.4959918  53.0270480  64.4594564  22.5336759  52.7250321
  66.4410796  22.2167295  49.3714064  65.4906427  22.2169156  49.2578436
  66.7443282  21.4700029  48.8550099  69.1898546  25.4488214  51.6183061
  69.4406585  26.3335224  51.8840637  69.7258095  25.2692816  50.8458153
  69.8207588  29.5979206  45.3100537  70.6582810  30.0076214  45.0934245
  69.9985856  28.6578648  45.2800731  69.8433759  26.9369921  45.9811271
  69.6458159  26.3439282  45.2562337  69.2880423  26.6322131  46.6987210
  66.4033590  28.6220116  48.1479016  67.0904630  28.3081846  47.5600031
  66.2481719  29.5261481  47.8746268  71.2068312  23.5110313  52.5764040
  71.1226501  22.9035983  51.8414450  70.3851019  24.0019331  52.5773536
  65.9801566  26.7020710  50.4196483  66.0185666  26.1684301  51.2133601
  65.4741859  26.1755915  49.8007460  69.6110144  25.4284812  43.4950415
  69.9063585  24.5195490  43.4417468  68.7098180  25.4072551  43.1731417
  69.7983962  28.0982708  52.6375248  69.2537430  28.8742516  52.7695523
  70.6763312  28.4453512  52.4794370  70.5849984  27.2252604  55.5305405
  69.8431720  27.3735239  56.1170036  70.2642728  27.4860869  54.6672155
  69.2315203  33.0304359  48.5204733  68.3947111  32.6026533  48.3388735
  69.2038848  33.2236802  49.4575525  68.5464699  26.0913707  48.3053665
  68.2267484  25.2379015  48.0128039  67.9998128  26.3062285  49.0611633
  68.4152959  29.7116619  50.2746787  67.7216431  29.2970571  49.7616741
  69.1625950  29.7537155  49.6780206  70.3289702  29.6434872  48.1512802
  70.3060390  29.7422560  47.1994685  70.6390338  30.4900023  48.4729968
  68.8311376  24.6050277  55.5322411  69.4770240  24.0949231  56.0209636
  68.6228527  25.3418959  56.1065836  15.3877041  33.5261707  68.2242091
  14.7365021  34.1115788  67.8376104  16.1821404  34.0567902  68.2837128
  21.6543765  30.0186643  69.4846927  20.8773208  29.6797802  69.0402089
  22.3335246  30.0239266  68.8101892  13.0594826  29.1151814  64.0281462
  12.1521888  28.8841067  64.2272611  13.5565858  28.3189433  64.2155444
  15.9662905  37.8249321  66.9478148  15.2924603  38.1281018  67.5563106
  16.3528727  38.6278402  66.5983605  13.9359147  30.7573153  65.8893531
  13.4978577  30.0409011  65.4299168  14.6769588  30.9849267  65.3278622
  14.1654120  37.9928994  69.1625227  14.3405876  37.5217037  69.9770850
  13.4786908  38.6194760  69.3906488  18.0570375  29.6157534  65.4825588
  17.4399545  28.8904362  65.3858641  17.5886863  30.3766894  65.1392663
  18.8808060  32.9396706  69.6018228  19.1567904  32.8253301  70.5112102
  18.0112559  32.5414191  69.5630401  18.9444473  36.0868040  71.1221073
  19.1181350  35.5214463  70.3694926  19.4373364  36.8868935  70.9400563
  19.9319645  35.4034805  68.2217971  20.6270550  36.0241497  68.4405286
  20.2742796  34.5530156  68.4970349  21.8311069  32.8534510  69.7505302
  22.3562393  33.1921783  69.0254622  21.7433421  31.9181526  69.5668437
  14.0234514  35.5096556  67.1293065  13.4508481  36.1286744  66.6763537
  14.5967308  36.0595918  67.6632987  17.2431774  35.7933707  68.2601647
  18.1762447  35.7279268  68.4634523  17.1554986  36.6289973  67.8016180
  19.8719790  35.1099577  65.2205595  19.7933422  34.7759440  66.1141353
  20.6929457  35.6021345  65.2197067  17.4423742  32.4267572  64.8415573
  18.1459592  32.6317575  65.4573229  16.7186391  32.9944334  65.1064657
  19.3510440  32.8650101  66.8914033  20.1856043  32.4331300  66.7091508
  19.1894782  32.6932115  67.8190928  19.0056332  29.3682215  68.2570373
  18.9505136  29.2026486  67.3158817  18.3802387  30.0758248  68.4132562
  27.9794715  43.3819753  76.9869210  28.6173125  43.2626500  76.2832550
  27.8615558  44.3300597  77.0457162  24.7884421  43.3347181  76.9230735
  24.4502932  43.2188245  76.0351270  25.6574189  42.9338346  76.9031741
  20.6471237  45.1882657  72.9127626  20.0836102  45.0972594  72.1443913
  20.5323632  44.3682562  73.3930118  26.2270795  48.8553625  68.2242091
  25.5758775  49.4407705  67.8376104  27.0215158  49.3859820  68.2837128
  20.1526422  45.9442762  68.6229225  20.9257298  45.3971749  68.4842101
  20.5051821  46.8087011  68.8343686  22.4892700  42.1035428  66.2547675
  22.7418221  41.5816949  65.4931138  21.5517259  41.9401574  66.3574358
  27.5335983  41.1071206  74.0622418  28.3199072  40.6890630  73.7112835
  27.7974687  42.0117299  74.2304066  27.7046060  46.5444057  68.7611075
  27.0691893  46.6178683  69.4731979  27.3743467  47.1337656  68.0830154
  32.9344410  41.0446440  74.9655397  33.6669582  40.4745656  75.1993226
  32.1783766  40.6568040  75.4061902  22.2088989  44.0063534  68.4572050
  22.0925247  43.3308437  69.1253134  22.3191249  43.5195908  67.6404203
  24.5520530  43.4673681  72.1618739  24.1878737  42.9404302  72.8731660
  25.4087646  43.0772150  71.9885224  24.1926017  38.4963581  67.1580088
  24.3600419  39.3643817  67.5250559  24.0023186  38.6590863  66.2341377
  20.4013832  43.4094357  74.8582622  19.4764328  43.2770571  75.0660314
  20.6498245  44.1888576  75.3552565  30.3498494  39.4763100  76.5043355
  29.4415371  39.4078508  76.2102116  30.2986090  39.9535045  77.3325181
  24.1715238  40.9521238  68.1426754  24.0514863  41.3978289  68.9812235
  23.4767826  41.3006556  67.5840292  29.8700304  41.4242712  68.9707088
  30.7818160  41.6570098  68.7954786  29.3609951  42.0079756  68.4082167
  24.0297848  46.1442938  73.6270755  24.4936194  46.4230641  72.8375377
  23.7654646  45.2426383  73.4443846  22.9666734  42.2666090  70.4360320
  23.6690778  42.7187134  70.9034246  22.6347363  41.6249909  71.0640213
  18.6606814  40.8894222  72.6960930  17.8637977  41.0012917  73.2144426
  18.4332406  41.2280875  71.8301821  24.2060499  49.0807033  70.5122425
  24.0706174  49.9258569  70.9407273  24.7470311  49.2826311  69.7488359
  17.6589896  46.5982471  71.0850350  18.1714417  47.3925721  71.2355915
  18.3112609  45.9008762  71.0183952  15.6238813  44.9271125  71.8609921
  16.4614035  45.3368134  71.6443629  15.8017081  43.9870568  71.8310115
  27.5203245  42.5946206  67.5493754  27.0049869  43.3650811  67.7882141
  27.2480554  41.9211342  68.1726815  25.1050356  37.4395907  72.6078992
  24.2491952  37.0502757  72.4284631  25.5177308  37.5187868  71.7478778
  32.4937519  45.3478561  69.4846927  31.7166962  45.0089720  69.0402089
  33.1729000  45.3531184  68.8101892  27.3089548  40.4673298  69.3753535
  27.0039684  40.7819447  70.2263678  28.2619990  40.5454718  69.4180868
  25.7535980  46.6263521  71.0246489  25.2257342  45.8916281  70.7119726
  25.2523483  47.4038198  70.7786457  29.5434285  43.1756915  74.1917477
  30.0566167  43.8086906  74.6939187  30.1935509  42.5758110  73.8260837
  20.8124295  39.3187649  67.4048986  19.9761607  39.6562335  67.7258261
  20.6729065  39.1836629  66.4676123  23.8988580  44.4443732  64.0281462
  22.9915642  44.2132985  64.2272611  24.3959612  43.6481351  64.2155444
  26.8056659  53.1541239  66.9478148  26.1318358  53.4572936  67.5563106
  27.1922481  53.9570319  66.5983605  26.0215116  40.6506370  76.4375818
  25.1037677  40.8721317  76.2797506  26.4375259  40.7252681  75.5787525
  26.8050164  42.0497786  71.5678498  27.5521983  42.5619183  71.2585620
  27.0741753  41.7281839  72.4282891  25.0776814  44.5456327  68.5505452
  24.1688033  44.2615359  68.6477922  25.1071898  44.9655405  67.6908759
  30.3096081  48.1562916  72.3196620  29.8558408  47.3153826  72.3761810
  29.6790048  48.7924314  72.6571400  29.2529001  39.0854902  73.5497287
  28.5151758  38.5732288  73.8807530  29.5055774  38.6455284  72.7380564
  29.3540628  31.8631154  74.1439056  29.6599505  31.0028518  73.8564972
  30.0793233  32.4548774  73.9438050  23.6261708  42.1584947  74.6515248
  23.6810318  41.2058784  74.5757724  22.8152910  42.3144386  75.1356546
  24.7752902  46.0865070  65.8893531  24.3372331  45.3700929  65.4299168
  25.5163342  46.3141185  65.3278622  21.5654068  40.7762007  72.4105626
  20.7521933  41.0756177  72.8170819  22.0613062  40.3817696  73.1280109
  23.7162646  50.7719764  74.3439891  23.6738824  50.9980610  73.4148423
  24.6325344  50.5383138  74.4925692  32.8926016  44.3622267  71.9469849
  32.7543915  44.5523863  71.0191039  32.5362235  45.1241650  72.4037900
  21.8328446  47.6482793  74.1401854  22.6269045  47.1533113  73.9384429
  21.1220139  47.1200656  73.7769559  18.1411210  41.7925875  70.2161606
  17.2108798  41.7310330  70.4331569  18.2368682  41.2701827  69.4198248
  18.0596759  38.3180687  72.8039848  18.3203576  39.2326021  72.6949009
  18.8813931  37.8505130  72.9536461  25.0047874  53.3220911  69.1625227
  25.1799630  52.8508954  69.9770850  24.3180662  53.9486678  69.3906488
  25.9604938  47.5993418  75.2088529  25.6254770  47.5594188  76.1046179
  25.4608883  46.9338133  74.7358939  28.8964129  44.9449452  65.4825588
  28.2793300  44.2196280  65.3858641  28.4280618  45.7058812  65.1392663
  20.6862675  39.1634876  64.6046893  19.8092141  39.0423677  64.2409139
  21.1620428  38.3720954  64.3525781  23.8726601  51.5161167  71.8509413
  23.0894123  52.0582847  71.9447638  24.5719346  52.0335146  72.2503654
  27.1823251  37.3255796  74.4943618  27.6791951  36.5725758  74.1744689
  26.4110233  37.3620113  73.9286828  28.2653032  46.0827483  72.0682042
  27.3309311  46.2028946  71.8986746  28.4429700  45.1799950  71.8042052
  23.7658220  39.4673179  74.2215303  23.3956008  38.9144219  74.9096209
  24.2617312  38.8631312  73.6690303  31.6525583  41.9244803  72.6032076
  32.1186035  42.7572794  72.5292379  32.1033084  41.4589784  73.3077335
  29.7201814  48.2688624  69.6018228  29.9961658  48.1545218  70.5112102
  28.8506313  47.8706109  69.5630401  26.3555878  52.5174975  73.2451042
  26.5378273  51.6996631  73.7078794  27.1788864  52.7342667  72.8075932
  26.6898044  51.4443160  70.5066090  27.2185810  50.9335614  69.8936252
  26.9526263  51.1285690  71.3711623  15.4141369  40.7576731  70.0459798
  15.7094810  39.8487410  69.9926852  14.5129405  40.7364471  69.7240801
  17.1429211  38.4390829  70.1699123  16.8141917  37.5588208  69.9874229
  17.4968581  38.3838498  71.0575513  26.3908789  50.0745732  74.6794109
  26.2433752  49.1462439  74.8601679  27.2162283  50.0965823  74.1951184
  20.2571034  38.7263799  70.5374601  20.5967106  39.2549720  69.8153209
  20.7043154  39.0644205  71.3133168  22.2439181  37.2238420  68.7367894
  22.9647543  37.6019673  68.2331611  21.6204485  37.9427297  68.8402872
  26.3870304  37.9283569  69.6726226  26.6033918  38.8108207  69.3715054
  25.9064371  37.5369783  68.9431868  29.7838227  51.4159958  71.1221073
  29.9575105  50.8506380  70.3694926  30.2767119  52.2160853  70.9400563
  22.3902804  36.7586211  71.5665430  22.5118715  35.8302857  71.7656318
  22.1004846  36.7724897  70.6543746  35.6377619  44.1796381  72.7411373
  36.0808765  43.4303706  72.3430496  34.7604129  44.1706517  72.3585105
  30.7713400  50.7326722  68.2217971  31.4664305  51.3533415  68.4405286
  31.1136550  49.8822074  68.4970349  32.6704823  48.1826428  69.7505302
  33.1956147  48.5213701  69.0254622  32.5827176  47.2473443  69.5668437
  21.3632863  48.3440344  69.6581318  21.5120983  49.0275808  69.0047990
  22.1699306  48.3245434  70.1730773  19.1185496  44.3705521  70.6642386
  18.8731538  43.4667851  70.8622597  19.2881410  44.3722672  69.7221864
  18.3881143  40.1033879  68.1628548  17.6950388  40.1778234  67.5068584
  18.1432895  39.3394222  68.6850065  24.8628268  50.8388474  67.1293065
  24.2902235  51.4578661  66.6763537  25.4361062  51.3887836  67.6632987
  28.0825528  51.1225624  68.2601647  29.0156201  51.0571186  68.4634523
  27.9948741  51.9581891  67.8016180  30.7113545  50.4391495  65.2205595
  30.6327176  50.1051358  66.1141353  31.5323212  50.9313262  65.2197067
  25.2475067  42.1749287  64.4709118  26.1934172  42.0455495  64.5397536
  24.8689312  41.4363949  64.9478546  31.2196951  33.8405293  74.4336009
  31.0221773  33.5320381  75.3179341  31.8296657  34.5666932  74.5633939
  23.4317984  40.0999263  64.4064003  22.5249439  39.8032376  64.4826716
  23.7093965  39.8029081  63.5398289  25.0480050  34.6436153  70.5608244
  24.2380778  34.2983238  70.9363490  25.7364467  34.3343697  71.1495856
  26.9770598  33.7214200  72.1832541  27.5301637  34.1409653  72.8422564
  27.2140684  32.7949948  72.2255497  22.2016769  36.9586198  64.5475982
  23.0635933  37.2841097  64.8071799  22.3867113  36.1717694  64.0349048
  30.3549405  35.8314725  71.6911205  29.7748074  36.4899529  71.3089257
  30.0885338  35.0092069  71.2798622  28.8052971  35.2319783  73.8932525
  29.3052750  35.3436317  73.0846844  29.4488579  34.9280835  74.5333334
  29.1374283  37.9914815  70.7467553  28.2500138  38.2764466  70.5287748
  29.5528272  37.8308579  69.8994830  32.4888819  38.0161336  74.4621892
  33.2649209  38.5057789  74.7346509  31.7636953  38.4419390  74.9193762
  34.9261378  38.7288955  75.5195833  35.5205869  38.4884691  74.8089141
  34.9987962  38.0096086  76.1469369  28.2817497  47.7559490  64.8415573
  28.9853347  47.9609492  65.4573229  27.5580145  48.3236252  65.1064657
  29.1115307  43.5069351  70.9617843  29.0550508  43.9637903  70.1225476
  29.6643649  42.7460036  70.7840686  32.9220113  39.2959083  71.7867963
  32.6657047  38.8955719  72.6176171  32.2972981  40.0102877  71.6618102
  37.2332451  42.0355156  74.2939254  36.6732009  42.1048346  75.0670816
  36.6275954  41.8596141  73.5738750  30.1904194  48.1942019  66.8914033
  31.0249798  47.7623218  66.7091508  30.0288537  48.0224033  67.8190928
  29.8450086  44.6974132  68.2570373  29.7898890  44.5318404  67.3158817
  29.2196141  45.4050165  68.4132562  23.1546212  34.1982241  67.8355691
  23.1424881  35.1424081  67.9923962  24.0469634  34.0152387  67.5415152
  33.3286455  57.4327346  66.2547675  33.5811975  56.9108867  65.4931138
  32.3911014  57.2693491  66.3574358  35.0319771  53.8255498  67.1580088
  35.1994174  54.6935735  67.5250559  34.8416940  53.9882780  66.2341377
  31.6518049  54.6479566  67.4048986  30.8155362  54.9854253  67.7258261
  31.5122819  54.5128546  66.4676123  34.7382335  59.7735649  64.0281462
  33.8309397  59.5424903  64.2272611  35.2353367  58.9773269  64.2155444
  31.5256430  54.4926794  64.6046893  30.6485896  54.3715595  64.2409139
  32.0014183  53.7012872  64.3525781  26.2535123  56.0868649  70.0459798
  26.5488565  55.1779328  69.9926852  25.3523159  56.0656389  69.7240801
  27.9822965  53.7682747  70.1699123  27.6535671  52.8880126  69.9874229
  28.3362336  53.7130415  71.0575513  33.0832935  52.5530338  68.7367894
  33.8041298  52.9311591  68.2331611  32.4598239  53.2719215  68.8402872
  29.2274898  55.4325797  68.1628548  28.5344143  55.5070151  67.5068584
  28.9826650  54.6686140  68.6850065  36.0868821  57.5041205  64.4709118
  37.0327926  57.3747413  64.5397536  35.7083066  56.7655866  64.9478546
  34.2711739  55.4291181  64.4064003  33.3643194  55.1324294  64.4826716
  34.5487720  55.1320999  63.5398289  33.0410523  52.2878116  64.5475982
  33.9029687  52.6133014  64.8071799  33.2260867  51.5009612  64.0349048
  33.9939966  49.5274159  67.8355691  33.9818636  50.4715999  67.9923962
  34.8863388  49.3444305  67.5415152  15.3877042  10.5323830  54.9487397
  14.7365022  11.1177910  54.5621411  16.1821405  11.0630025  55.0082435
  21.6543766   7.0248766  56.2092234  20.8773209   6.6859925  55.7647396
  22.3335247   7.0301389  55.5347199  13.0594827   6.1213937  50.7526769
  12.1521889   5.8903190  50.9517918  13.5565859   5.3251556  50.9400750
  15.9662906  14.8311444  53.6723455  15.2924605  15.1343141  54.2808413
  16.3528728  15.6340524  53.3228912  13.9359148   7.7635275  52.6138837
  13.4978578   7.0471134  52.1544475  14.6769589   7.9911390  52.0523929
  14.1654121  14.9991116  55.8870534  14.3405877  14.5279159  56.7016157
  13.4786909  15.6256882  56.1151795  18.0570376   6.6219657  52.2070895
  17.4399547   5.8966485  52.1103948  17.5886864   7.3829017  51.8637969
  18.8808061   9.9458829  56.3263535  19.1567905   9.8315423  57.2357409
  18.0112560   9.5476314  56.2875708  18.9444474  13.0930163  57.8466380
  19.1181352  12.5276585  57.0940232  19.4373365  13.8931058  57.6645870
  19.9319647  12.4096927  54.9463278  20.6270551  13.0303620  55.1650593
  20.2742797  11.5592279  55.2215656  21.8311070   9.8596633  56.4750609
  22.3562394  10.1983906  55.7499929  21.7433422   8.9243648  56.2913743
  14.0234515  12.5158679  53.8538372  13.4508482  13.1348866  53.4008844
  14.5967309  13.0658041  54.3878294  17.2431775  12.7995829  54.9846954
  18.1762448  12.7341391  55.1879829  17.1554988  13.6352096  54.5261487
  19.8719792  12.1161699  51.9450902  19.7933423  11.7821563  52.8386659
  20.6929458  12.6083467  51.9442374  17.4423743   9.4329695  51.5660880
  18.1459594   9.6379697  52.1818535  16.7186392  10.0006457  51.8309963
  19.3510441   9.8712224  53.6159340  20.1856045   9.4393423  53.4336815
  19.1894784   9.6994238  54.5436234  19.0056333   6.3744337  54.9815679
  18.9505137   6.2088609  54.0404123  18.3802388   7.0820370  55.1377869
  27.9794716  20.3881875  63.7114517  28.6173126  20.2688623  63.0077857
  27.8615559  21.3362719  63.7702469  24.7884422  20.3409303  63.6476041
  24.4502934  20.2250368  62.7596576  25.6574190  19.9400468  63.6277047
  20.6471238  22.1944780  59.6372932  20.0836103  22.1034717  58.8689220
  20.5323633  21.3744684  60.1175425  18.1935670  23.6895971  62.4757153
  18.9856962  23.3486796  62.0603452  18.4332320  23.7990946  63.3959306
  26.2270797  25.8615747  54.9487397  25.5758776  26.4469828  54.5621411
  27.0215159  26.3921942  55.0082435  20.1526424  22.9504885  55.3474532
  20.9257300  22.4033872  55.2087407  20.5051823  23.8149134  55.5588993
  22.4892702  19.1097551  52.9792981  22.7418222  18.5879072  52.2176444
  21.5517261  18.9463696  53.0819665  27.5335984  18.1133329  60.7867725
  28.3199074  17.6952752  60.4358142  27.7974689  19.0179421  60.9549373
  27.7046062  23.5506179  55.4856381  27.0691895  23.6240806  56.1977286
  27.3743468  24.1399778  54.8075461  32.9344411  18.0508562  61.6900703
  33.6669583  17.4807779  61.9238533  32.1783767  17.6630163  62.1307209
  22.2088990  21.0125657  55.1817356  22.0925248  20.3370560  55.8498441
  22.3191250  20.5258031  54.3649509  24.5520531  20.4735804  58.8864046
  24.1878738  19.9466425  59.5976967  25.4087647  20.0834273  58.7130531
  24.1926018  15.5025703  53.8825394  24.3600421  16.3705940  54.2495865
  24.0023187  15.6652985  52.9586683  26.9501351  23.9642682  65.5491225
  26.6502074  24.8667721  65.4407032  26.6052411  23.6974866  66.4012377
  20.4013833  20.4156479  61.5827929  19.4764329  20.2832693  61.7905621
  20.6498246  21.1950698  62.0797871  30.3498495  16.4825223  63.2288662
  29.4415373  16.4140631  62.9347423  30.2986091  16.9597167  64.0570487
  24.1715239  17.9583361  54.8672061  24.0514864  18.4040412  55.7057541
  23.4767827  18.3068679  54.3085599  21.9322131  30.7287003  58.5162192
  21.8546161  31.6794828  58.5950673  21.3283775  30.3832875  59.1737119
  29.8700305  18.4304834  55.6952395  30.7818161  18.6632221  55.5200093
  29.3609952  19.0141878  55.1327474  28.4769888  23.4130653  63.0865976
  27.8478750  23.5776367  62.3842044  28.0895550  23.8272262  63.8576941
  32.3559119  24.3485090  60.4410340  31.6710158  24.7283992  59.8907374
  32.4402969  24.9580417  61.1742288  29.6110051  21.9945049  67.0405684
  29.8226946  22.6376809  66.3640065  29.5639799  21.1607366  66.5727614
  24.0297849  23.1505061  60.3516062  24.4936195  23.4292764  59.5620684
  23.7654648  22.2488505  60.1689152  20.9221930  22.6976542  63.2895825
  21.4923288  23.1263811  62.6513309  21.5130042  22.4159127  63.9880010
  22.9666735  19.2728213  57.1605627  23.6690779  19.7249257  57.6279553
  22.6347364  18.6312032  57.7885520  30.7255879  24.8717005  65.2128041
  31.5473323  24.4697192  64.9310723  30.7218282  24.7685239  66.1644157
  18.6606815  17.8956345  59.4206237  17.8637978  18.0075039  59.9389733
  18.4332407  18.2342997  58.5547128  38.8161872  21.2155753  61.5613013
  38.0625580  20.6463151  61.4057017  38.9509413  21.1818418  62.5083647
  24.2060500  26.0869156  57.2367732  24.0706175  26.9320691  57.6652580
  24.7470313  26.2888433  56.4733666  17.6589897  23.6044594  57.8095657
  18.1714418  24.3987844  57.9601222  18.3112610  22.9070884  57.7429258
  19.4684782  26.7210350  59.8918410  19.6451411  27.6428315  59.7039394
  20.2641616  26.4068769  60.3212790  20.5916098  28.2388524  65.8928753
  21.1423523  28.1105587  65.1205746  19.7527574  28.5383413  65.5423645
  27.9310215  26.9895522  69.3949475  27.9128690  27.8104403  68.9029744
  28.8530135  26.8649597  69.6199616  15.6238814  21.9333248  58.5855228
  16.4614036  22.3430256  58.3688935  15.8017082  20.9932690  58.5555421
  27.5203246  19.6008329  54.2739061  27.0049870  20.3712933  54.5127448
  27.2480555  18.9273465  54.8972122  25.1050357  14.4458029  59.3324299
  24.2491954  14.0564880  59.1529938  25.5177309  14.5249990  58.4724084
  32.4937521  22.3540683  56.2092234  31.7166963  22.0151843  55.7647396
  33.1729001  22.3593306  55.5347199  27.3089550  17.4735421  56.0998842
  27.0039685  17.7881570  56.9508985  28.2619992  17.5516841  56.1426175
  25.7535981  23.6325644  57.7491796  25.2257343  22.8978404  57.4365033
  25.2523484  24.4100320  57.5031764  30.7328827  21.8274665  62.8658842
  30.0752502  22.5173926  62.9538971  31.5369227  22.2171096  63.2092828
  29.5434286  20.1819037  60.9162784  30.0566168  20.8149029  61.4184493
  30.1935510  19.5820233  60.5506144  20.8124296  16.3249771  54.1294292
  19.9761608  16.6624458  54.4503567  20.6729066  16.1898751  53.1921429
  23.8988582  21.4505854  50.7526769  22.9915643  21.2195108  50.9517918
  24.3959614  20.6543474  50.9400750  26.8056660  30.1603361  53.6723455
  26.1318359  30.4635058  54.2808413  27.1922482  30.9632442  53.3228912
  26.0215117  17.6568493  63.1621124  25.1037678  17.8783440  63.0042812
  26.4375261  17.7314803  62.3032832  26.8050165  19.0559908  58.2923805
  27.5521984  19.5681306  57.9830927  27.0741754  18.7343961  59.1528198
  25.0776815  21.5518449  55.2750759  24.1688034  21.2677482  55.3723229
  25.1071899  21.9717528  54.4154066  30.3096082  25.1625039  59.0441926
  29.8558410  24.3215949  59.1007117  29.6790049  25.7986437  59.3816707
  29.2529002  16.0917025  60.2742594  28.5151759  15.5794411  60.6052836
  29.5055776  15.6517406  59.4625871  28.7529022  27.0001535  59.9791745
  29.0451996  27.5606592  59.2604110  29.2627642  27.2930096  60.7344904
  29.3540629   8.8693277  60.8684363  29.6599506   8.0090640  60.5810278
  30.0793234   9.4610897  60.6683357  15.6464985  19.2723963  59.2565961
  15.4489385  18.6793324  58.5317028  15.0911649  18.9676173  59.9741900
  23.6261709  19.1647070  61.3760554  23.6810319  18.2120906  61.3003031
  22.8152911  19.3206509  61.8601853  24.7752903  23.0927193  52.6138837
  24.3372333  22.3763052  52.1544475  25.5163344  23.3203308  52.0523929
  21.5654069  17.7824130  59.1350933  20.7521935  18.0818300  59.5416125
  22.0613063  17.3879818  59.8525415  23.7162647  27.7781886  61.0685198
  23.6738826  28.0042733  60.1393730  24.6325346  27.5445261  61.2170999
  32.8926018  21.3684390  58.6715156  32.7543916  21.5585986  57.7436345
  32.5362236  22.1303773  59.1283207  32.9195397  23.4360917  63.6826427
  33.3531904  23.3436206  64.5309481  33.6326978  23.4118417  63.0446443
  21.8328448  24.6544915  60.8647160  22.6269046  24.1595236  60.6629735
  21.1220140  24.1262779  60.5014866  26.6523292  27.0363011  65.2159528
  26.7060314  27.6053947  65.9837244  25.7838073  27.2064896  64.8513565
  18.1411211  18.7987997  56.9406913  17.2108799  18.7372453  57.1576875
  18.2368683  18.2763950  56.1443554  18.0596760  15.3242810  59.5285155
  18.3203577  16.2388143  59.4194315  18.8813932  14.8567253  59.6781768
  33.7810947  23.4784618  66.2159313  33.9746837  24.3830428  66.4618588
  33.6811565  23.0192037  67.0497898  24.4099724  25.2273937  64.5444998
  24.2710809  24.8592722  65.4170936  23.6214320  25.7421577  64.3728955
  25.0047876  30.3283034  55.8870534  25.1799631  29.8571077  56.7016157
  24.3180664  30.9548800  56.1151795  25.9604939  24.6055540  61.9333835
  25.6254771  24.5656310  62.8291485  25.4608884  23.9400256  61.4604246
  28.8964130  21.9511574  52.2070895  28.2793301  21.2258403  52.1103948
  28.4280619  22.7120935  51.8637969  30.5518262  26.6610483  69.8676675
  30.4930808  25.9769703  69.2007258  30.9537780  27.4029473  69.4157301
  19.5708961  33.4772397  62.6610394  19.8105559  34.1090921  63.3389413
  18.7278157  33.1260437  62.9475753  20.6862676  16.1696999  51.3292199
  19.8092143  16.0485800  50.9654446  21.1620429  15.3783077  51.0771088
  30.5535669  24.6250067  68.0990655  29.6662448  24.2875989  68.2217054
  31.1234220  23.8933098  68.3359420  24.0836823  29.2851519  65.0651898
  24.0106994  30.0906491  65.5771203  23.6414216  29.4843485  64.2399920
  23.8726602  28.5223289  58.5754720  23.0894124  29.0644969  58.6692944
  24.5719348  29.0397269  58.9748961  27.1823252  14.3317919  61.2188925
  27.6791952  13.5787881  60.8989995  26.4110234  14.3682235  60.6532134
  35.0353010  20.0358284  62.8607217  35.0242886  20.9183000  62.4901150
  34.1670389  19.6829835  62.6661754  26.5435506  29.1838353  67.2210057
  27.2563478  29.8185818  67.1485958  26.0525535  29.2802219  66.4050059
  28.2653033  23.0889606  58.7927349  27.3309312  23.2091068  58.6232053
  28.4429702  22.1862073  58.5287358  23.7658221  16.4735302  60.9460610
  23.3956009  15.9206342  61.6341515  24.2617314  15.8693435  60.3935610
  31.6525585  18.9306925  59.3277383  32.1186037  19.7634917  59.2537685
  32.1033085  18.4651907  60.0322641  21.5947420  26.9332797  68.0415628
  22.2956879  27.5669280  68.1945022  21.1242535  27.2747528  67.2811267
  29.7201816  25.2750746  56.3263535  29.9961660  25.1607341  57.2357409
  28.8506314  24.8768231  56.2875708  29.3948706  19.4877404  65.8668178
  28.7420156  19.7353312  65.2120631  29.7729086  18.6741542  65.5330655
  26.3555880  29.5237097  59.9696348  26.5378274  28.7058753  60.4324101
  27.1788866  29.7404789  59.5321238  26.6898045  28.4505282  57.2311397
  27.2185812  27.9397737  56.6181559  26.9526265  28.1347813  58.0956930
  17.1915138  26.4669152  64.9746730  17.7768575  25.7212840  65.1074635
  16.9939976  26.7773108  65.8583394  20.0453793  29.5020399  59.9909173
  19.3764168  29.9866527  59.5073213  19.9066663  29.7489619  60.9052551
  24.1859062  31.5364143  66.5891831  24.7377370  31.6995764  67.3540916
  24.5265255  32.1268580  65.9171856  15.4141370  17.7638854  56.7705105
  15.7094811  16.8549532  56.7172159  14.5129406  17.7426593  56.4486107
  27.3227449  29.4846118  63.5755513  27.1978588  28.6835858  63.0666459
  27.9806540  29.9792311  63.0869483  29.3862357  27.2855138  65.2035063
  28.4392693  27.1660489  65.1313390  29.7345130  26.3977636  65.2861325
  17.1429212  15.4452952  56.8944430  16.8141918  14.5650331  56.7119536
  17.4968582  15.3900620  57.7820819  26.3908791  27.0807854  61.4039416
  26.2433753  26.1524562  61.5846986  27.2162284  27.1027945  60.9196491
  20.2571035  15.7325921  57.2619908  20.5967107  16.2611843  56.5398516
  20.7043155  16.0706328  58.0378474  29.9942912  27.9036413  62.4904288
  30.9189460  27.6979274  62.3528739  29.8258216  27.6552814  63.3993630
  22.2439182  14.2300543  55.4613200  22.9647545  14.6081796  54.9576917
  21.6204486  14.9489420  55.5648178  26.3870305  14.9345692  56.3971533
  26.6033919  15.8170330  56.0960361  25.9064372  14.5431905  55.6677175
  29.7838229  28.4222081  57.8466380  29.9575106  27.8568503  57.0940232
  30.2767120  29.2222975  57.6645870  22.3902805  13.7648334  58.2910737
  22.5118716  12.8364980  58.4901625  22.1004848  13.7787019  57.3789053
  35.6377620  21.1858504  59.4656680  36.0808766  20.4365829  59.0675803
  34.7604130  21.1768640  59.0830412  30.7713401  27.7388845  54.9463278
  31.4664306  28.3595538  55.1650593  31.1136551  26.8884196  55.2215656
  32.6704824  25.1888551  56.4750609  33.1956148  25.5275823  55.7499929
  32.5827177  24.2535566  56.2913743  24.3324873  29.1022624  68.6040485
  24.6411999  28.8571771  69.4763185  25.1300355  29.3069263  68.1159356
  24.3545485  31.2560534  60.8345862  23.9150475  30.7636912  61.5278719
  25.1053602  30.7133501  60.5937937  16.8337824  27.4472075  60.8370490
  17.6595844  27.1475847  60.4569134  16.4831876  26.6779697  61.2860279
  21.8019357  26.7998543  62.9068164  21.1799366  26.1369248  62.6070392
  22.4724224  26.8259675  62.2241811  15.0346429  25.3658401  61.7959424
  14.1978337  24.9380575  61.6143425  15.0070075  25.5590844  62.7330215
  32.4796605  22.6713921  69.0934535  32.5294610  22.5063928  70.0350058
  32.3710529  21.8041180  68.7032416  21.3632864  25.3502466  56.3826624
  21.5120984  26.0337931  55.7293297  22.1699308  25.3307556  56.8976080
  33.9814802  25.0910862  69.3376557  33.6899611  25.4540843  70.1740018
  33.3686934  24.3777870  69.1589889  35.1810485  22.6563742  61.8579127
  36.0157376  23.0953546  62.0216687  35.3169613  22.1802395  61.0387373
  32.2301990  20.2143477  67.8056615  32.7056112  20.4071123  66.9975466
  31.3067556  20.2702662  67.5599999  19.1185497  21.3767644  57.3887693
  18.8731539  20.4729974  57.5867903  19.2881412  21.3784794  56.4467171
  18.3881145  17.1096001  54.8873855  17.6950390  17.1840356  54.2313891
  18.1432897  16.3456345  55.4095372  24.8628270  27.8450597  53.8538372
  24.2902237  28.4640784  53.4008844  25.4361063  28.3949958  54.3878294
  28.0825529  28.1287747  54.9846954  29.0156203  28.0633308  55.1879829
  27.9948742  28.9644014  54.5261487  30.7113546  27.4453617  51.9450902
  30.6327178  27.1113481  52.8386659  31.5323213  27.9375385  51.9442374
  33.4091737  20.3115356  65.1527220  33.3768057  19.3731357  65.3386904
  34.0192361  20.3899393  64.4193045  25.2475068  19.1811409  51.1954424
  26.1934173  19.0517618  51.2642842  24.8689313  18.4426071  51.6723852
  33.5586226  17.1026400  65.1985503  33.0425274  16.3184857  65.0115432
  34.4426174  16.7745116  65.3632023  31.2196953  10.8467415  61.1581316
  31.0221774  10.5382504  62.0424648  31.8296658  11.5729054  61.2879246
  39.2268287  21.3731363  64.2933257  39.9571676  21.1116651  64.8540960
  38.6175233  20.6360085  64.3335325  37.3083584  19.5139226  64.8907708
  36.5816748  19.3795191  64.2824200  36.8930871  19.8216054  65.6964426
  23.4317985  17.1061386  51.1309309  22.5249441  16.8094499  51.2072023
  23.7093966  16.8091204  50.2643596  25.0480051  11.6498276  57.2853551
  24.2380779  11.3045360  57.6608797  25.7364468  11.3405819  57.8741162
  26.9770599  10.7276322  58.9077847  27.5301638  11.1471776  59.5667870
  27.2140686   9.8012070  58.9500803  22.2016770  13.9648321  51.2721289
  23.0635934  14.2903219  51.5317106  22.3867114  13.1779817  50.7594354
  30.3549406  12.8376847  58.4156512  29.7748075  13.4961652  58.0334564
  30.0885339  12.0154192  58.0043929  28.8052973  12.2381905  60.6177832
  29.3052751  12.3498440  59.8092151  29.4488581  11.9342958  61.2578640
  16.1320928  21.9788914  61.4267492  16.1091616  22.0776602  60.4749375
  16.4421565  22.8254065  61.7484658  29.1374284  14.9976938  57.4712860
  28.2500139  15.2826588  57.2533055  29.5528273  14.8370701  56.6240137
  32.4888821  15.0223459  61.1867199  33.2649211  15.5119911  61.4591816
  31.7636955  15.4481513  61.6439069  34.9261379  15.7351078  62.2441140
  35.5205870  15.4946814  61.5334448  34.9987963  15.0158209  62.8714676
  17.1458535  29.5784689  62.5584305  17.0113003  28.8185090  61.9922303
  16.7290597  30.3025589  62.0913093  28.2817498  24.7621613  51.5660880
  28.9853348  24.9671615  52.1818535  27.5580147  25.3298374  51.8309963
  29.1115308  20.5131474  57.6863150  29.0550510  20.9700025  56.8470782
  29.6643651  19.7522158  57.5085993  32.9220114  16.3021206  58.5113269
  32.6657048  15.9017841  59.3421477  32.2972982  17.0165000  58.3863409
  37.2332452  19.0417279  61.0184561  36.6732010  19.1110468  61.7916123
  36.6275955  18.8658264  60.2984057  20.3027661  30.4754006  62.7702747
  20.1860045  31.4199439  62.6681437  19.4820107  30.1727568  63.1588546
  30.1904195  25.2004142  53.6159340  31.0249799  24.7685340  53.4336815
  30.0288538  25.0286155  54.5436234  29.8450087  21.7036255  54.9815679
  29.7898891  21.5380526  54.0404123  29.2196143  22.4112288  55.1377869
  23.1546213  11.2044364  54.5600998  23.1424883  12.1486204  54.7169268
  24.0469635  11.0214509  54.2660459  21.3282175  31.1282268  65.9858676
  22.2309422  31.1605878  66.3025171  21.1019545  30.1982719  66.0005011
  23.0835777  29.8813254  62.6468754  22.1331408  29.8815116  62.5333127
  23.3868263  29.1345989  62.1304789  38.8188470  35.7173793  63.7114517
  39.4566880  35.5980540  63.0077857  38.7009313  36.6654637  63.7702469
  35.6278177  35.6701221  63.6476041  35.2896688  35.5542286  62.7596576
  36.4967945  35.2692386  63.6277047  31.4864992  37.5236697  59.6372932
  30.9229857  37.4326634  58.8689220  31.3717387  36.7036602  60.1175425
  36.1097960  36.8236073  69.6062247  36.0986600  36.4288871  68.7342751
  36.2718599  36.0902145  70.1996018  29.0329424  39.0187889  62.4757153
  29.8250716  38.6778714  62.0603452  29.2726074  39.1282864  63.3959306
  37.0664551  41.1907665  54.9487397  36.4152531  41.7761745  54.5621411
  37.8608914  41.7213860  55.0082435  30.9920178  38.2796802  55.3474532
  31.7651054  37.7325789  55.2087407  31.3445577  39.1441052  55.5588993
  32.8305221  39.6073184  68.5541431  32.5395087  40.5118815  68.4388097
  33.4662205  39.6489712  69.2685500  33.7561428  36.9850033  65.1442790
  34.3525000  36.7606055  64.4299753  33.8136399  36.2434778  65.7468238
  33.3286456  34.4389468  52.9792981  33.5811977  33.9170990  52.2176444
  32.3911015  34.2755614  53.0819665  38.3729739  33.4425247  60.7867725
  39.1592828  33.0244670  60.4358142  38.6368443  34.3471339  60.9549373
  38.5439816  38.8798097  55.4856381  37.9085649  38.9532724  56.1977286
  38.2137223  39.4691696  54.8075461  43.7738166  33.3800480  61.6900703
  44.5063338  32.8099697  61.9238533  43.0177522  32.9922080  62.1307209
  33.0482745  36.3417574  55.1817356  32.9319003  35.6662478  55.8498441
  33.1585005  35.8549948  54.3649509  35.3914286  35.8027721  58.8864046
  35.0272493  35.2758342  59.5976967  36.2481402  35.4126190  58.7130531
  41.2963586  27.0922054  66.1495312  40.9646911  27.9617465  65.9256527
  40.7009200  26.7758338  66.8289342  35.0319773  30.8317621  53.8825394
  35.1994175  31.6997858  54.2495865  34.8416942  30.9944903  52.9586683
  37.7895106  39.2934600  65.5491225  37.4895829  40.1959639  65.4407032
  37.4446165  39.0266783  66.4012377  31.2407587  35.7448397  61.5827929
  30.3158084  35.6124611  61.7905621  31.4892001  36.5242616  62.0797871
  41.1892250  31.8117140  63.2288662  40.2809127  31.7432549  62.9347423
  41.1379845  32.2889085  64.0570487  35.0108994  33.2875279  54.8672061
  34.8908619  33.7332329  55.7057541  34.3161582  33.6360596  54.3085599
  28.6016398  35.3881670  62.4171718  28.7308780  35.6416149  63.3311130
  27.9213850  35.9809378  62.0976373  32.7715886  46.0578920  58.5162192
  32.6939915  47.0086745  58.5950673  32.1677529  45.7124793  59.1737119
  35.2633115  33.2306786  71.1723559  34.4866449  33.7900706  71.1626424
  35.9023678  33.7163569  71.6938429  43.0553896  30.0133579  65.0066536
  42.4128276  30.3066112  64.3606330  42.5508825  29.8986499  65.8119732
  40.7094060  33.7596752  55.6952395  41.6211916  33.9924139  55.5200093
  40.2003707  34.3433796  55.1327474  33.5179488  36.0392239  70.7341526
  34.2594172  36.5777283  70.4576350  32.8116473  36.6658528  70.8913078
  38.9934827  38.1821380  69.3313688  39.4018183  37.7403790  68.5868320
  38.2712089  37.6074007  69.5847880  35.3465897  33.1193986  66.7047245
  36.1927093  33.5433400  66.8481894  35.2864535  32.4627611  67.3985808
  39.3163642  38.7422570  63.0865976  38.6872504  38.9068284  62.3842044
  38.9289304  39.1564180  63.8576941  43.1952874  39.6777008  60.4410340
  42.5103912  40.0575909  59.8907374  43.2796723  40.2872335  61.1742288
  38.4965343  30.7798355  68.3628418  38.2526275  31.5340415  67.8262694
  38.7725273  31.1583702  69.1975665  40.4503806  37.3236967  67.0405684
  40.6620701  37.9668727  66.3640065  40.4033554  36.4899284  66.5727614
  38.0530034  29.9354788  63.9442256  37.1914514  30.2336041  64.2358993
  38.0792469  30.1525187  63.0123289  34.8691604  38.4796978  60.3516062
  35.3329949  38.7584681  59.5620684  34.6048402  37.5780423  60.1689152
  31.7615685  38.0268460  63.2895825  32.3317042  38.4555728  62.6513309
  32.3523797  37.7451045  63.9880010  33.8060490  34.6020131  57.1605627
  34.5084533  35.0541174  57.6279553  33.4741118  33.9603950  57.7885520
  32.2540851  33.1931887  71.5356836  31.6239512  33.8748168  71.7692233
  32.1476939  33.0814969  70.5909974  27.5485824  32.8603683  62.4622760
  26.7584878  33.1161212  61.9862871  28.0397071  33.6752021  62.5674801
  41.5649633  40.2008923  65.2128041  42.3867077  39.7989110  64.9310723
  41.5612036  40.0977157  66.1644157  29.5000569  33.2248263  59.4206237
  28.7031733  33.3366957  59.9389733  29.2726161  33.5634915  58.5547128
  35.3306237  39.7492966  67.3688752  35.3950669  40.2113373  68.2046923
  34.6217161  39.1190331  67.4971061  25.8323527  33.1134174  64.8937751
  26.0831565  33.9981184  65.1595327  26.3683075  32.9338775  64.1212843
  49.6555627  36.5447671  61.5613013  48.9019335  35.9755069  61.4057017
  49.7903168  36.5110335  62.5083647  35.0454255  41.4161073  57.2367732
  34.9099929  42.2612609  57.6652580  35.5864067  41.6180351  56.4733666
  28.4983652  38.9336511  57.8095657  29.0108173  39.7279762  57.9601222
  29.1506365  38.2362802  57.7429258  30.3078537  42.0502268  59.8918410
  30.4845165  42.9720232  59.7039394  31.1035370  41.7360687  60.3212790
  34.4489555  28.9110532  71.4902344  35.1899269  29.5117685  71.4106806
  34.6807478  28.1688170  70.9320386  29.5930893  34.0966900  69.7680573
  29.4784408  33.1952157  70.0687672  28.7375411  34.3430596  69.4165390
  36.6722731  42.0384640  71.3668074  36.2286585  41.2521018  71.0488979
  37.3339945  42.2263790  70.7011965  31.4309852  43.5680441  65.8928753
  31.9817277  43.4397505  65.1205746  30.5921328  43.8675330  65.5423645
  38.7703969  42.3187440  69.3949475  38.7522444  43.1396321  68.9029744
  39.6923889  42.1941515  69.6199616  35.2277023  39.8331569  70.2372984
  35.7605360  39.0719857  70.0072292  34.6991104  39.5405221  70.9797138
  38.3946718  24.9391635  65.7666625  38.0510988  25.8293277  65.6905736
  38.7625681  24.7493293  64.9036210  26.4632569  37.2625166  58.5855228
  27.3007791  37.6722174  58.3688935  26.6410836  36.3224608  58.5555421
  38.3597001  34.9300246  54.2739061  37.8443624  35.7004851  54.5127448
  38.0874309  34.2565382  54.8972122  35.9444112  29.7749947  59.3324299
  35.0885708  29.3856797  59.1529938  36.3571064  29.8541908  58.4724084
  37.4743259  27.3096290  63.7315859  36.9708054  27.2726426  62.9183664
  37.7673865  28.2189033  63.7912515  33.7186144  27.3935020  62.7382040
  34.5839141  27.1977829  62.3787930  33.7863653  27.1645372  63.6651397
  43.3331275  37.6832601  56.2092234  42.5560718  37.3443760  55.7647396
  44.0122756  37.6885224  55.5347199  38.1483304  32.8027338  56.0998842
  37.8433440  33.1173488  56.9508985  39.1013746  32.8808758  56.1426175
  36.5929736  38.9617562  57.7491796  36.0651097  38.2270321  57.4365033
  36.0917239  39.7392238  57.5031764  41.5722582  37.1566582  62.8658842
  40.9146256  37.8465844  62.9538971  42.3762981  37.5463014  63.2092828
  31.3248463  29.6237228  60.1098407  31.8992215  29.4012409  59.3771600
  31.9119446  29.6925922  60.8627008  40.3828041  35.5110955  60.9162784
  40.8959922  36.1440947  61.4184493  41.0329265  34.9112150  60.5506144
  31.6518051  31.6541689  54.1294292  30.8155363  31.9916376  54.4503567
  31.5122820  31.5190669  53.1921429  33.6271131  26.4978477  58.8373477
  32.9735544  26.1827494  58.2130091  33.5851605  25.8754217  59.5633300
  34.7382336  36.7797772  50.7526769  33.8309398  36.5487025  50.9517918
  35.2353368  35.9835391  50.9400750  37.6450415  45.4895279  53.6723455
  36.9712114  45.7926976  54.2808413  38.0316237  46.2924360  53.3228912
  36.8608872  32.9860410  63.1621124  35.9431433  33.2075357  63.0042812
  37.2769015  33.0606721  62.3032832  37.6443919  34.3851826  58.2923805
  38.3915738  34.8973223  57.9830927  37.9135509  34.0635879  59.1528198
  35.9170570  36.8810367  55.2750759  35.0081789  36.5969400  55.3723229
  35.9465653  37.3009445  54.4154066  41.1489837  40.4916956  59.0441926
  40.6952164  39.6507866  59.1007117  40.5183804  41.1278355  59.3816707
  40.0922756  31.4208942  60.2742594  39.3545513  30.9086329  60.6052836
  40.3449530  30.9809324  59.4625871  39.5922776  42.3293453  59.9791745
  39.8845751  42.8898510  59.2604110  40.1021397  42.6222014  60.7344904
  40.1934384  24.1985194  60.8684363  40.4993261  23.3382558  60.5810278
  40.9186989  24.7902815  60.6683357  26.4858740  34.6015881  59.2565961
  26.2883140  34.0085242  58.5317028  25.9305404  34.2968091  59.9741900
  34.4655464  34.4938987  61.3760554  34.5204073  33.5412824  61.3003031
  33.6546666  34.6498427  61.8601853  35.6146657  38.4219111  52.6138837
  35.1766087  37.7054969  52.1544475  36.3557098  38.6495225  52.0523929
  32.4047823  33.1116047  59.1350933  31.5915689  33.4110218  59.5416125
  32.9006818  32.7171736  59.8525415  34.5556401  43.1073804  61.0685198
  34.5132580  43.3334650  60.1393730  35.4719100  42.8737179  61.2170999
  38.0022035  33.5757872  67.9665827  38.3571423  33.8029345  68.8260293
  38.6494166  33.9076248  67.3443082  43.7319772  36.6976308  58.6715156
  43.5937671  36.8877904  57.7436345  43.3755991  37.4595690  59.1283207
  31.8961898  30.6834403  64.7512168  32.5361278  30.5423162  64.0535131
  31.0639429  30.3968916  64.3750770  43.7589152  38.7652835  63.6826427
  44.1925658  38.6728124  64.5309481  44.4720732  38.7410335  63.0446443
  32.6722202  39.9836833  60.8647160  33.4662801  39.4887153  60.6629735
  31.9613895  39.4554696  60.5014866  37.4917047  42.3654929  65.2159528
  37.5454069  42.9345865  65.9837244  36.6231828  42.5356814  64.8513565
  28.9804966  34.1279915  56.9406913  28.0502554  34.0664370  57.1576875
  29.0762438  33.6055868  56.1443554  28.8990515  30.6534728  59.5285155
  29.1597332  31.5680061  59.4194315  29.7207687  30.1859170  59.6781768
  30.3715440  32.0672485  66.6983979  31.0438493  31.8589847  66.0496628
  29.5445227  31.8694571  66.2589212  44.6204701  38.8076535  66.2159313
  44.8140591  39.7122346  66.4618588  44.5205319  38.3483954  67.0497898
  36.2741012  28.6934426  68.7149640  35.6268927  29.3924375  68.6214117
  37.0442027  29.1270570  69.0825888  39.6819810  38.9583278  71.7900193
  39.5305316  38.7293830  70.8730277  39.6724489  39.9153879  71.8031538
  36.4505146  36.5315191  66.7746460  37.3797206  36.6826350  66.6015427
  36.0296176  36.6199211  65.9195106  35.2493478  40.5565855  64.5444998
  35.1104564  40.1884640  65.4170936  34.4608074  41.0713495  64.3728955
  35.8441630  45.6574952  55.8870534  36.0193386  45.1862995  56.7016157
  35.1574418  46.2840718  56.1151795  36.7998693  39.9347458  61.9333835
  36.4648526  39.8948228  62.8291485  36.3002639  39.2692174  61.4604246
  30.7742937  35.3415088  67.4586416  30.6362735  34.6095327  68.0597956
  31.6847861  35.2523988  67.1770604  39.7357885  37.2803492  52.2070895
  39.1187056  36.5550320  52.1103948  39.2674373  38.0412852  51.8637969
  33.4025238  35.0535047  66.9470096  34.1124856  34.4128239  66.9056715
  33.3594546  35.3047942  67.8696277  41.3912017  41.9902401  69.8676675
  41.3324563  41.3061621  69.2007258  41.7931535  42.7321391  69.4157301
  32.1154172  32.0400265  68.7665736  31.5791529  31.5891004  69.4187332
  31.5270880  32.1746174  68.0236200  30.4102715  48.8064314  62.6610394
  30.6499314  49.4382839  63.3389413  29.5671912  48.4552354  62.9475753
  31.5256431  31.4988916  51.3292199  30.6485897  31.3777717  50.9654446
  32.0014184  30.7074995  51.0771088  41.3929424  39.9541984  68.0990655
  40.5056203  39.6167906  68.2217054  41.9627975  39.2225016  68.3359420
  23.0458571  36.2866076  61.4233706  23.7329611  35.9727806  60.8354722
  22.8906700  37.1907441  61.1500958  27.8493293  31.1756273  65.8518730
  27.7651482  30.5681942  65.1169140  27.0276000  31.6665291  65.8528226
  34.9230577  44.6143437  65.0651898  34.8500749  45.4198408  65.5771203
  34.4807970  44.8135403  64.2399920  34.7120357  43.8515207  58.5754720
  33.9287879  44.3936887  58.6692944  35.4113102  44.3689186  58.9748961
  38.0217007  29.6609836  61.2188925  38.5185707  28.9079799  60.8989995
  37.2503988  29.6974153  60.6532134  45.8746764  35.3650202  62.8607217
  45.8636641  36.2474917  62.4901150  45.0064144  35.0121753  62.6661754
  37.3829261  44.5130271  67.2210057  38.0957233  45.1477736  67.1485958
  36.8919289  44.6094137  66.4050059  39.1046788  38.4181523  58.7927349
  38.1703066  38.5382986  58.6232053  39.2823456  37.5153990  58.5287358
  34.6051976  31.8027219  60.9460610  34.2349763  31.2498260  61.6341515
  35.1011068  31.1985353  60.3935610  42.4919339  34.2598843  59.3277383
  42.9579791  35.0926834  59.2537685  42.9426840  33.7943824  60.0322641
  32.4341174  42.2624714  68.0415628  33.1350634  42.8961197  68.1945022
  31.9636289  42.6039446  67.2811267  40.5595570  40.6042664  56.3263535
  40.8355414  40.4899259  57.2357409  39.6900069  40.2060149  56.2875708
  40.4636002  26.6279430  63.3668284  39.5499082  26.8583657  63.5350491
  40.8929103  26.7117874  64.2182316  40.2342460  34.8169322  65.8668178
  39.5813910  35.0645229  65.2120631  40.6122840  34.0033460  65.5330655
  37.1949634  44.8529015  59.9696348  37.3772029  44.0350671  60.4324101
  38.0182620  45.0696707  59.5321238  37.5291800  43.7797200  57.2311397
  38.0579566  43.2689655  56.6181559  37.7920019  43.4639730  58.0956930
  36.2830033  35.5589133  72.3534215  35.6070670  35.4583262  73.0236590
  37.1057667  35.4028347  72.8170212  28.0308892  41.7961069  64.9746730
  28.6162329  41.0504757  65.1074635  27.8333731  42.1065026  65.8583394
  30.8847548  44.8312317  59.9909173  30.2157923  45.3158444  59.5073213
  30.7460417  45.0781537  60.9052551  22.6226547  34.3666670  63.6951174
  22.6610647  33.8330260  64.4888292  22.1166840  33.8401875  63.0762151
  35.0252816  46.8656060  66.5891831  35.5771124  47.0287682  67.3540916
  35.3659010  47.4560498  65.9171856  30.0017309  29.2131210  67.1913716
  30.0658636  30.0746041  66.7791114  29.9384430  28.6005212  66.4586074
  29.4769582  31.2854343  70.8386750  30.1041621  30.9031420  71.4524274
  28.6197501  31.0668545  71.2042443  39.8763690  41.6917318  72.4440486
  40.4203594  42.3047276  71.9495440  39.2950535  42.2496896  72.9607499
  26.2535125  33.0930772  56.7705105  26.5488566  32.1841450  56.7172159
  25.3523160  33.0718511  56.4486107  38.1621203  44.8138036  63.5755513
  38.0372343  44.0127776  63.0666459  38.8200295  45.3084229  63.0869483
  29.7829372  31.1686768  62.7532654  29.0615957  31.7822736  62.6140127
  30.5722627  31.7044533  62.6749299  40.2256112  42.6147056  65.2035063
  39.2786447  42.4952407  65.1313390  40.5738885  41.7269554  65.2861325
  32.5855685  28.5041195  69.0273305  33.1090087  28.7503491  69.7899615
  32.3668018  29.3361230  68.6076443  27.9822966  30.7744869  56.8944430
  27.6535672  29.8942248  56.7119536  28.3362337  30.7192538  57.7820819
  37.2302545  42.4099772  61.4039416  37.0827508  41.4816479  61.5846986
  38.0556039  42.4319863  60.9196491  31.0964789  31.0617839  57.2619908
  31.4360862  31.5903760  56.5398516  31.5436910  31.3998245  58.0378474
  40.8336667  43.2328331  62.4904288  41.7583214  43.0271192  62.3528739
  40.6651970  42.9844732  63.3993630  33.7908230  29.4454890  66.7122976
  33.4505051  28.6462703  67.1143656  33.0847237  29.7456601  66.1399809
  34.4424702  26.5304202  65.1650299  35.2650771  26.0564680  65.0429189
  34.6862766  27.3094686  65.6648985  33.0832937  29.5592461  55.4613200
  33.8041299  29.9373714  54.9576917  32.4598241  30.2781338  55.5648178
  37.2264059  30.2637610  56.3971533  37.4427674  31.1462248  56.0960361
  36.7458127  29.8723823  55.6677175  31.9663281  33.2223323  62.9742277
  31.8207862  33.5363626  63.8666559  31.4888484  33.8408223  62.4213176
  33.8259664  30.2125871  63.0223167  33.8121232  29.3166964  62.6855465
  34.5432092  30.2196535  63.6561453  35.6785794  30.6463211  65.0676294
  35.4203572  31.5680282  65.0660625  35.1470835  30.2493646  65.7576759
  40.6231983  43.7513998  57.8466380  40.7968861  43.1860421  57.0940232
  41.1160874  44.5514893  57.6645870  26.4408943  35.7628667  65.9129939
  25.8962411  36.5388475  66.0450213  27.3188293  36.1099472  65.7549060
  33.2296560  29.0940251  58.2910737  33.3512471  28.1656897  58.4901625
  32.9398602  29.1078937  57.3789053  36.0987750  26.7795162  61.4277457
  36.1209447  26.8434495  60.4729437  36.5155809  25.9399670  61.6217963
  46.4771374  36.5150421  59.4656680  46.9202520  35.7657746  59.0675803
  45.5997885  36.5060558  59.0830412  41.6107156  43.0680763  54.9463278
  42.3058060  43.6887455  55.1650593  41.9530306  42.2176114  55.2215656
  27.2274965  34.8898564  68.8060095  26.4856701  35.0381199  69.3924726
  26.9067709  35.1506829  67.9426845  43.5098579  40.5180468  56.4750609
  44.0349903  40.8567741  55.7499929  43.4220931  39.5827484  56.2913743
  35.1718627  44.4314542  68.6040485  35.4805754  44.1863689  69.4763185
  35.9694110  44.6361180  68.1159356  35.1939240  46.5852451  60.8345862
  34.7544230  46.0928830  61.5278719  35.9447356  46.0425419  60.5937937
  27.6731579  42.7763992  60.8370490  28.4989598  42.4767764  60.4569134
  27.3225631  42.0071615  61.2860279  32.6413112  42.1290461  62.9068164
  32.0193121  41.4661166  62.6070392  33.3117979  42.1551592  62.2241811
  25.8740184  40.6950319  61.7959424  25.0372092  40.2672493  61.6143425
  25.8463829  40.8882762  62.7330215  32.7137639  30.6072249  72.5000670
  32.7625795  31.4834371  72.1178439  33.2560153  30.0649642  71.9272313
  43.1992485  41.1513372  71.7801807  42.4088029  41.1337511  71.2406306
  42.9625839  41.6901666  72.5350843  43.3190360  38.0005838  69.0934535
  43.3688365  37.8355846  70.0350058  43.2104283  37.1333097  68.7032416
  32.2026619  40.6794384  56.3826624  32.3514739  41.3629848  55.7293297
  33.0093062  40.6599474  56.8976080  40.6094122  33.9836766  70.4093842
  41.5103985  33.8443231  70.1177840  40.6842097  34.1491221  71.3492019
  34.9436928  31.3603621  69.2547028  34.0740237  31.6537187  68.9829617
  35.1796408  31.9444066  69.9754292  44.8208557  40.4202780  69.3376557
  44.5293365  40.7832760  70.1740018  44.2080688  39.7069788  69.1589889
  46.0204239  37.9855659  61.8579127  46.8551130  38.4245464  62.0216687
  46.1563368  37.5094313  61.0387373  43.0695745  35.5435394  67.8056615
  43.5449867  35.7363041  66.9975466  42.1461310  35.5994580  67.5599999
  29.9579252  36.7059562  57.3887693  29.7125294  35.8021892  57.5867903
  30.1275166  36.7076712  56.4467171  37.6475961  27.5783238  66.7712449
  38.1657905  28.3144265  66.4458937  37.2931094  27.8847231  67.6059208
  29.2274899  32.4387919  54.8873855  28.5344144  32.5132274  54.2313891
  28.9826651  31.6748263  55.4095372  37.8988556  23.9983520  62.2913345
  38.1790309  23.3306710  62.9173772  38.6839163  24.1912616  61.7788009
  35.7022024  43.1742514  53.8538372  35.1295991  43.7932701  53.4008844
  36.2754818  43.7241876  54.3878294  41.7697414  32.4201154  66.0384920
  42.7214837  32.5199252  66.0597145  41.6000864  31.6279423  66.5483005
  39.7911793  29.5056738  66.2244321  39.1961726  29.7861750  65.5290810
  39.5061490  29.9950639  66.9961062  38.9219284  43.4579664  54.9846954
  39.8549957  43.3925226  55.1879829  38.8342497  44.2935931  54.5261487
  41.5507301  42.7745535  51.9450902  41.4720932  42.4405398  52.8386659
  42.3716967  43.2667303  51.9442374  44.2485492  35.6407274  65.1527220
  44.2161812  34.7023275  65.3386904  44.8586115  35.7191311  64.4193045
  36.0868823  34.5103327  51.1954424  37.0327927  34.3809535  51.2642842
  35.7083068  33.7717989  51.6723852  44.3979980  32.4318318  65.1985503
  43.8819029  31.6476774  65.0115432  45.2819929  32.1037034  65.3632023
  42.0590707  26.1759333  61.1581316  41.8615528  25.8674421  62.0424648
  42.6690413  26.9020972  61.2879246  50.0662042  36.7023281  64.2933257
  50.7965430  36.4408569  64.8540960  49.4568987  35.9652003  64.3335325
  48.1477339  34.8431144  64.8907708  47.4210502  34.7087108  64.2824200
  47.7324626  35.1507972  65.6964426  35.9707515  38.5621073  72.6555081
  36.8910525  38.7399672  72.8495128  35.9357098  37.6177119  72.5034780
  34.2711740  32.4353303  51.1309309  33.3643195  32.1386416  51.2072023
  34.5487721  32.1383122  50.2643596  25.1889680  33.7559667  61.5808356
  24.8692464  32.9024975  61.2882730  24.6423108  33.9708245  62.3366323
  28.9669588  36.4722108  65.2977862  29.1855597  37.4039216  65.3165896
  29.3795362  36.1130082  66.0832666  35.8873805  26.9790193  57.2853551
  35.0774534  26.6337278  57.6608797  36.5758222  26.6697737  57.8741162
  37.8164354  26.0568240  58.9077847  38.3695392  26.4763693  59.5667870
  38.0534440  25.1303988  58.9500803  33.8397453  32.0455314  74.6880611
  33.7394180  32.9949671  74.6192702  33.6218995  31.7173553  73.8156681
  33.0410524  29.2940239  51.2721289  33.9029688  29.6195137  51.5317106
  33.2260869  28.5071735  50.7594354  25.0577940  37.3762578  63.5501477
  24.3641412  36.9616531  63.0371432  25.8050931  37.4183115  62.9534896
  41.1943161  28.1668765  58.4156512  40.6141830  28.8253569  58.0334564
  40.9279094  27.3446110  58.0043929  39.6446727  27.5673823  60.6177832
  40.1446506  27.6790357  59.8092151  40.2882335  27.2634876  61.2578640
  33.7028723  35.4752452  73.5045673  33.2195805  36.2752813  73.7109562
  33.7889662  35.4860397  72.5513117  26.9714683  37.3080832  61.4267492
  26.9485371  37.4068519  60.4749375  27.2815319  38.1545983  61.7484658
  29.6302061  39.3656987  65.5414107  30.5845314  39.3340930  65.4744038
  29.4314584  38.9047611  66.3564333  30.2201443  37.9358103  68.1084904
  31.0394332  38.4302182  68.1319742  30.4938250  37.0190071  68.0802472
  39.9768039  30.3268856  57.4712860  39.0893894  30.6118506  57.2533055
  40.3922028  30.1662619  56.6240137  43.3282575  30.3515377  61.1867199
  44.1042965  30.8411829  61.4591816  42.6030709  30.7773431  61.6439069
  45.7655134  31.0642996  62.2441140  46.3599624  30.8238732  61.5334448
  45.8381717  30.3450126  62.8714676  27.9852289  44.9076607  62.5584305
  27.8506757  44.1477008  61.9922303  27.5684352  45.6317507  62.0913093
  39.1211252  40.0913530  51.5660880  39.8247102  40.2963533  52.1818535
  38.3973901  40.6590292  51.8309963  39.9509063  35.8423391  57.6863150
  39.8944264  36.2991943  56.8470782  40.5037405  35.0814076  57.5085993
  43.7613869  31.6313123  58.5113269  43.5050803  31.2309759  59.3421477
  43.1366737  32.3456917  58.3863409  48.0726206  34.3709197  61.0184561
  47.5125764  34.4402386  61.7916123  47.4669710  34.1950181  60.2984057
  31.1421415  45.8045924  62.7702747  31.0253799  46.7491356  62.6681437
  30.3213861  45.5019485  63.1588546  41.0297950  40.5296059  53.6159340
  41.8643554  40.0977258  53.4336815  40.8682293  40.3578073  54.5436234
  40.6843842  37.0328173  54.9815679  40.6292646  36.8672444  54.0404123
  40.0589897  37.7404206  55.1377869  25.4736357  32.2696237  68.8077101
  26.1195221  31.7595191  69.2964327  25.2653508  33.0064919  69.3820527
  37.9989749  39.3377085  74.3069242  38.8680909  39.5117737  73.9455877
  37.5196501  40.1571501  74.1844971  33.9939967  26.5336282  54.5600998
  33.9818637  27.4778122  54.7169268  34.8863389  26.3506427  54.2660459
  32.1675929  46.4574186  65.9858676  33.0703176  46.4897796  66.3025171
  31.9413299  45.5274637  66.0005011  33.9229531  45.2105172  62.6468754
  32.9725162  45.2107034  62.5333127  34.2262018  44.4637907  62.1304789
  37.8092087  23.1279058  58.8146934  37.0424483  22.5737545  58.9603617
  38.2202792  23.2000927  59.6761086  49.6582225  51.0465711  63.7114517
  50.2960635  50.9272458  63.0077857  49.5403068  51.9946554  63.7702469
  46.4671931  50.9993139  63.6476041  46.1290443  50.8834203  62.7596576
  47.3361699  50.5984304  63.6277047  42.3258747  52.8528615  59.6372932
  41.7623612  52.7618552  58.8689220  42.2111142  52.0328520  60.1175425
  39.8723179  54.3479807  62.4757153  40.6644471  54.0070631  62.0603452
  40.1119829  54.4574782  63.3959306  47.9058306  56.5199583  54.9487397
  47.2546285  57.1053663  54.5621411  48.7002668  57.0505778  55.0082435
  41.8313933  53.6088720  55.3474532  42.6044809  53.0617707  55.2087407
  42.1839332  54.4732969  55.5588993  44.5955182  52.3141951  65.1442790
  45.1918754  52.0897973  64.4299753  44.6530154  51.5726696  65.7468238
  44.1680211  49.7681386  52.9792981  44.4205731  49.2462907  52.2176444
  43.2304770  49.6047531  53.0819665  49.2123493  48.7717164  60.7867725
  49.9986583  48.3536588  60.4358142  49.4762198  49.6763257  60.9549373
  49.3833571  54.2090015  55.4856381  48.7479404  54.2824641  56.1977286
  49.0530977  54.7983614  54.8075461  54.6131920  48.7092398  61.6900703
  55.3457092  48.1391614  61.9238533  53.8571276  48.3213998  62.1307209
  43.8876499  51.6709492  55.1817356  43.7712757  50.9954395  55.8498441
  43.9978759  51.1841866  54.3649509  46.2308040  51.1319639  58.8864046
  45.8666247  50.6050260  59.5976967  47.0875156  50.7418108  58.7130531
  52.1357341  42.4213972  66.1495312  51.8040666  43.2909383  65.9256527
  51.5402954  42.1050256  66.8289342  45.8713527  46.1609539  53.8825394
  46.0387930  47.0289775  54.2495865  45.6810696  46.3236820  52.9586683
  42.0801342  51.0740315  61.5827929  41.1551838  50.9416529  61.7905621
  42.3285755  51.8534534  62.0797871  52.0286004  47.1409058  63.2288662
  51.1202881  47.0724466  62.9347423  51.9773600  47.6181003  64.0570487
  45.8502748  48.6167196  54.8672061  45.7302373  49.0624247  55.7057541
  45.1555336  48.9652514  54.3085599  39.4410153  50.7173588  62.4171718
  39.5702534  50.9708067  63.3311130  38.7607604  51.3101296  62.0976373
  43.6109640  61.3870838  58.5162192  43.5333670  62.3378663  58.5950673
  43.0071284  61.0416711  59.1737119  53.8947651  45.3425496  65.0066536
  53.2522031  45.6358029  64.3606330  53.3902579  45.2278417  65.8119732
  51.5487814  49.0888669  55.6952395  52.4605670  49.3216056  55.5200093
  51.0397461  49.6725714  55.1327474  46.1859652  48.4485904  66.7047245
  47.0320847  48.8725318  66.8481894  46.1258290  47.7919528  67.3985808
  48.8923789  45.2646705  63.9442256  48.0308268  45.5627959  64.2358993
  48.9186224  45.4817104  63.0123289  45.7085358  53.8088896  60.3516062
  46.1723704  54.0876599  59.5620684  45.4442156  52.9072341  60.1689152
  42.6009439  53.3560378  63.2895825  43.1710797  53.7847646  62.6513309
  43.1917551  53.0742962  63.9880010  44.6454244  49.9312048  57.1605627
  45.3478288  50.3833092  57.6279553  44.3134873  49.2895867  57.7885520
  38.3879578  48.1895601  62.4622760  37.5978632  48.4453130  61.9862871
  38.8790826  49.0043939  62.5674801  40.3394324  48.5540180  59.4206237
  39.5425487  48.6658875  59.9389733  40.1119916  48.8926832  58.5547128
  36.6717281  48.4426091  64.8937751  36.9225320  49.3273101  65.1595327
  37.2076830  48.2630693  64.1212843  45.8848009  56.7452991  57.2367732
  45.7493684  57.5904527  57.6652580  46.4257822  56.9472269  56.4733666
  39.3377406  54.2628429  57.8095657  39.8501927  55.0571679  57.9601222
  39.9900119  53.5654719  57.7429258  41.1472291  57.3794185  59.8918410
  41.3238919  58.3012150  59.7039394  41.9429125  57.0652605  60.3212790
  49.2340473  40.2683553  65.7666625  48.8904742  41.1585195  65.6905736
  49.6019435  40.0785211  64.9036210  37.3026323  52.5917083  58.5855228
  38.1401545  53.0014092  58.3688935  37.4804591  51.6516525  58.5555421
  49.1990755  50.2592164  54.2739061  48.6837379  51.0296769  54.5127448
  48.9268064  49.5857300  54.8972122  46.7837866  45.1041865  59.3324299
  45.9279463  44.7148715  59.1529938  47.1964818  45.1833826  58.4724084
  48.3137013  42.6388208  63.7315859  47.8101809  42.6018343  62.9183664
  48.6067620  43.5480951  63.7912515  44.5579899  42.7226938  62.7382040
  45.4232896  42.5269746  62.3787930  44.6257408  42.4937290  63.6651397
  54.1725029  53.0124519  56.2092234  53.3954472  52.6735678  55.7647396
  54.8516510  53.0177142  55.5347199  48.9877059  48.1319256  56.0998842
  48.6827194  48.4465405  56.9508985  49.9407501  48.2100676  56.1426175
  47.4323490  54.2909479  57.7491796  46.9044852  53.5562239  57.4365033
  46.9310993  55.0684156  57.5031764  42.1642218  44.9529146  60.1098407
  42.7385970  44.7304327  59.3771600  42.7513200  45.0217840  60.8627008
  51.2221795  50.8402873  60.9162784  51.7353677  51.4732864  61.4184493
  51.8723019  50.2404068  60.5506144  42.4911805  46.9833607  54.1294292
  41.6549117  47.3208293  54.4503567  42.3516575  46.8482586  53.1921429
  44.4664886  41.8270395  58.8373477  43.8129298  41.5119412  58.2130091
  44.4245360  41.2046135  59.5633300  45.5776091  52.1089690  50.7526769
  44.6703152  51.8778943  50.9517918  46.0747123  51.3127309  50.9400750
  48.4844169  60.8187197  53.6723455  47.8105868  61.1218894  54.2808413
  48.8709991  61.6216277  53.3228912  47.7002626  48.3152328  63.1621124
  46.7825187  48.5367275  63.0042812  48.1162770  48.3898639  62.3032832
  48.4837674  49.7143744  58.2923805  49.2309493  50.2265141  57.9830927
  48.7529263  49.3927797  59.1528198  46.7564324  52.2102285  55.2750759
  45.8475543  51.9261317  55.3723229  46.7859408  52.6301363  54.4154066
  51.9883591  55.8208874  59.0441926  51.5345919  54.9799784  59.1007117
  51.3577558  56.4570272  59.3816707  50.9316511  46.7500860  60.2742594
  50.1939268  46.2378246  60.6052836  51.1843285  46.3101242  59.4625871
  51.0328138  39.5277112  60.8684363  51.3387015  38.6674475  60.5810278
  51.7580743  40.1194732  60.6683357  37.3252494  49.9307799  59.2565961
  37.1276894  49.3377159  58.5317028  36.7699158  49.6260009  59.9741900
  45.3049218  49.8230905  61.3760554  45.3597828  48.8704742  61.3003031
  44.4940420  49.9790344  61.8601853  46.4540412  53.7511028  52.6138837
  46.0159842  53.0346887  52.1544475  47.1950853  53.9787143  52.0523929
  43.2441578  48.4407965  59.1350933  42.4309443  48.7402135  59.5416125
  43.7400572  48.0463654  59.8525415  45.3950156  58.4365722  61.0685198
  45.3526335  58.6626568  60.1393730  46.3112855  58.2029096  61.2170999
  54.5713527  52.0268225  58.6715156  54.4331425  52.2169821  57.7436345
  54.2149745  52.7887608  59.1283207  42.7355653  46.0126320  64.7512168
  43.3755032  45.8715079  64.0535131  41.9033183  45.7260834  64.3750770
  43.5115957  55.3128751  60.8647160  44.3056555  54.8179071  60.6629735
  42.8007649  54.7846614  60.5014866  39.8198720  49.4571833  56.9406913
  38.8896308  49.3956288  57.1576875  39.9156192  48.9347785  56.1443554
  39.7384269  45.9826645  59.5285155  39.9991086  46.8971979  59.4194315
  40.5601441  45.5151088  59.6781768  41.2109194  47.3964403  66.6983979
  41.8832248  47.1881765  66.0496628  40.3838981  47.1986489  66.2589212
  47.1134766  44.0226343  68.7149640  46.4662682  44.7216293  68.6214117
  47.8835782  44.4562487  69.0825888  46.6835385  60.9866869  55.8870534
  46.8587140  60.5154912  56.7016157  45.9968173  61.6132635  56.1151795
  47.6392448  55.2639375  61.9333835  47.3042280  55.2240145  62.8291485
  47.1396393  54.5984091  61.4604246  41.6136692  50.6707006  67.4586416
  41.4756490  49.9387244  68.0597956  42.5241615  50.5815906  67.1770604
  50.5751639  52.6095410  52.2070895  49.9580810  51.8842238  52.1103948
  50.1068128  53.3704770  51.8637969  42.9547926  47.3692183  68.7665736
  42.4185283  46.9182921  69.4187332  42.3664635  47.5038092  68.0236200
  42.3650185  46.8280834  51.3292199  41.4879652  46.7069635  50.9654446
  42.8407938  46.0366912  51.0771088  33.8852325  51.6157994  61.4233706
  34.5723365  51.3019724  60.8354722  33.7300454  52.5199359  61.1500958
  38.6887048  46.5048190  65.8518730  38.6045236  45.8973860  65.1169140
  37.8669754  46.9957209  65.8528226  45.5514111  59.1807124  58.5754720
  44.7681633  59.7228805  58.6692944  46.2506857  59.6981104  58.9748961
  48.8610761  44.9901754  61.2188925  49.3579461  44.2371716  60.8989995
  48.0897743  45.0266071  60.6532134  49.9440542  53.7473441  58.7927349
  49.0096821  53.8674904  58.6232053  50.1217211  52.8445908  58.5287358
  45.4445730  47.1319137  60.9460610  45.0743518  46.5790177  61.6341515
  45.9404823  46.5277270  60.3935610  53.3313094  49.5890760  59.3277383
  53.7973546  50.4218752  59.2537685  53.7820594  49.1235742  60.0322641
  51.3989325  55.9334582  56.3263535  51.6749169  55.8191176  57.2357409
  50.5293823  55.5352067  56.2875708  51.3029756  41.9571347  63.3668284
  50.3892836  42.1875574  63.5350491  51.7322858  42.0409792  64.2182316
  48.0343389  60.1820933  59.9696348  48.2165783  59.3642589  60.4324101
  48.8576375  60.3988625  59.5321238  48.3685554  59.1089118  57.2311397
  48.8973321  58.5981572  56.6181559  48.6313774  58.7931648  58.0956930
  41.7241302  60.1604234  59.9909173  41.0551677  60.6450362  59.5073213
  41.5854172  60.4073455  60.9052551  33.4620302  49.6958587  63.6951174
  33.5004401  49.1622178  64.4888292  32.9560594  49.1693793  63.0762151
  40.8411064  44.5423128  67.1913716  40.9052390  45.4037959  66.7791114
  40.7778184  43.9297129  66.4586074  37.0928879  48.4222689  56.7705105
  37.3882320  47.5133368  56.7172159  36.1916915  48.4010429  56.4486107
  40.6223126  46.4978686  62.7532654  39.9009712  47.1114654  62.6140127
  41.4116382  47.0336451  62.6749299  43.4249440  43.8333112  69.0273305
  43.9483841  44.0795409  69.7899615  43.2061773  44.6653147  68.6076443
  38.8216721  46.1036787  56.8944430  38.4929427  45.2234166  56.7119536
  39.1756091  46.0484456  57.7820819  48.0696300  57.7391690  61.4039416
  47.9221262  56.8108397  61.5846986  48.8949793  57.7611780  60.9196491
  41.9358544  46.3909757  57.2619908  42.2754616  46.9195678  56.5398516
  42.3830664  46.7290163  58.0378474  44.6301985  44.7746808  66.7122976
  44.2898805  43.9754621  67.1143656  43.9240991  45.0748518  66.1399809
  45.2818457  41.8596120  65.1650299  46.1044526  41.3856598  65.0429189
  45.5256520  42.6386604  65.6648985  43.9226691  44.8884378  55.4613200
  44.6435054  45.2665631  54.9576917  43.2991995  45.6073255  55.5648178
  48.0657814  45.5929527  56.3971533  48.2821428  46.4754165  56.0960361
  47.5851881  45.2015741  55.6677175  42.8057035  48.5515241  62.9742277
  42.6601616  48.8655544  63.8666559  42.3282239  49.1700141  62.4213176
  44.6653418  45.5417789  63.0223167  44.6514987  44.6458882  62.6855465
  45.3825846  45.5488452  63.6561453  46.5179549  45.9755129  65.0676294
  46.2597327  46.8972199  65.0660625  45.9864589  45.5785563  65.7576759
  51.4625738  59.0805916  57.8466380  51.6362615  58.5152338  57.0940232
  51.9554629  59.8806811  57.6645870  37.2802697  51.0920585  65.9129939
  36.7356166  51.8680393  66.0450213  38.1582047  51.4391389  65.7549060
  44.0690314  44.4232169  58.2910737  44.1906225  43.4948815  58.4901625
  43.7792356  44.4370855  57.3789053  46.9381505  42.1087079  61.4277457
  46.9603201  42.1726412  60.4729437  47.3549564  41.2691588  61.6217963
  57.3165129  51.8442339  59.4656680  57.7596275  51.0949664  59.0675803
  56.4391639  51.8352475  59.0830412  52.4500910  58.3972680  54.9463278
  53.1451815  59.0179373  55.1650593  52.7924060  57.5468032  55.2215656
  38.0668719  50.2190481  68.8060095  37.3250455  50.3673117  69.3924726
  37.7461464  50.4798747  67.9426845  54.3492333  55.8472386  56.4750609
  54.8743657  56.1859659  55.7499929  54.2614686  54.9119401  56.2913743
  38.5125333  58.1055910  60.8370490  39.3383353  57.8059682  60.4569134
  38.1619385  57.3363532  61.2860279  43.4806866  57.4582378  62.9068164
  42.8586875  56.7953083  62.6070392  44.1511733  57.4843510  62.2241811
  36.7133938  56.0242236  61.7959424  35.8765846  55.5964411  61.6143425
  36.6857583  56.2174680  62.7330215  43.0420373  56.0086302  56.3826624
  43.1908493  56.6921766  55.7293297  43.8486817  55.9891392  56.8976080
  40.7973006  52.0351479  57.3887693  40.5519048  51.1313809  57.5867903
  40.9668921  52.0368630  56.4467171  48.4869716  42.9075156  66.7712449
  49.0051660  43.6436183  66.4458937  48.1324849  43.2139149  67.6059208
  40.0668654  47.7679837  54.8873855  39.3737899  47.8424192  54.2313891
  39.8220405  47.0040180  55.4095372  48.7382310  39.3275438  62.2913345
  49.0184064  38.6598627  62.9173772  49.5232917  39.5204534  61.7788009
  46.5415779  58.5034432  53.8538372  45.9689746  59.1224619  53.4008844
  47.1148572  59.0533794  54.3878294  50.6305548  44.8348655  66.2244321
  50.0355480  45.1153668  65.5290810  50.3455245  45.3242556  66.9961062
  49.7613038  58.7871582  54.9846954  50.6943712  58.7217144  55.1879829
  49.6736251  59.6227849  54.5261487  52.3901055  58.1037452  51.9450902
  52.3114687  57.7697316  52.8386659  53.2110722  58.5959220  51.9442374
  46.9262577  49.8395245  51.1954424  47.8721682  49.7101453  51.2642842
  46.5476822  49.1009907  51.6723852  52.8984462  41.5051251  61.1581316
  52.7009283  41.1966339  62.0424648  53.5084167  42.2312890  61.2879246
  45.1105494  47.7645221  51.1309309  44.2036950  47.4678334  51.2072023
  45.3881475  47.4675039  50.2643596  36.0283435  49.0851585  61.5808356
  35.7086219  48.2316893  61.2882730  35.4816863  49.3000163  62.3366323
  39.8063342  51.8014026  65.2977862  40.0249352  52.7331133  65.3165896
  40.2189116  51.4422000  66.0832666  46.7267560  42.3082111  57.2853551
  45.9168288  41.9629196  57.6608797  47.4151977  41.9989655  57.8741162
  48.6558108  41.3860158  58.9077847  49.2089147  41.8055611  59.5667870
  48.8928195  40.4595906  58.9500803  35.8971695  52.7054496  63.5501477
  35.2035166  52.2908449  63.0371432  36.6444686  52.7475033  62.9534896
  52.0336915  43.4960683  58.4156512  51.4535584  44.1545487  58.0334564
  51.7672848  42.6738027  58.0043929  50.4840482  42.8965741  60.6177832
  50.9840260  43.0082275  59.8092151  51.1276090  42.5926793  61.2578640
  37.8108437  52.6372750  61.4267492  37.7879125  52.7360437  60.4749375
  38.1209074  53.4837901  61.7484658  40.4695815  54.6948905  65.5414107
  41.4239069  54.6632847  65.4744038  40.2708339  54.2339529  66.3564333
  50.8161793  45.6560773  57.4712860  49.9287648  45.9410424  57.2533055
  51.2315782  45.4954537  56.6240137  54.1676330  45.6807294  61.1867199
  54.9436720  46.1703747  61.4591816  53.4424464  46.1065348  61.6439069
  56.6048888  46.3934913  62.2441140  57.1993379  46.1530649  61.5334448
  56.6775472  45.6742044  62.8714676  38.8246044  60.2368524  62.5584305
  38.6900512  59.4768925  61.9922303  38.4078106  60.9609424  62.0913093
  49.9605007  55.4205448  51.5660880  50.6640857  55.6255450  52.1818535
  49.2367656  55.9882210  51.8309963  50.7902817  51.1715309  57.6863150
  50.7338019  51.6283861  56.8470782  51.3431160  50.4105994  57.5085993
  54.6007623  46.9605041  58.5113269  54.3444557  46.5601677  59.3421477
  53.9760491  47.6748835  58.3863409  58.9119961  49.7001114  61.0184561
  58.3519519  49.7694304  61.7916123  58.3063464  49.5242099  60.2984057
  51.8691704  55.8587977  53.6159340  52.7037308  55.4269176  53.4336815
  51.7076047  55.6869991  54.5436234  51.5237596  52.3620090  54.9815679
  51.4686400  52.1964362  54.0404123  50.8983652  53.0696123  55.1377869
  36.3130111  47.5988155  68.8077101  36.9588975  47.0887109  69.2964327
  36.1047263  48.3356836  69.3820527  44.8333722  41.8628199  54.5600998
  44.8212392  42.8070039  54.7169268  45.7257144  41.6798345  54.2660459
  48.6485841  38.4570976  58.8146934  47.8818237  37.9029463  58.9603617
  49.0596546  38.5292845  59.6761086  55.0073965  65.0973304  52.9792981
  55.2599486  64.5754825  52.2176444  54.0698524  64.9339449  53.0819665
  56.7107282  61.4901456  53.8825394  56.8781684  62.3581693  54.2495865
  56.5204451  61.6528738  52.9586683  53.3305560  62.3125524  54.1294292
  52.4942872  62.6500211  54.4503567  53.1910329  62.1774504  53.1921429
  56.4169845  67.4381607  50.7526769  55.5096907  67.2070861  50.9517918
  56.9140877  66.6419227  50.9400750  53.2043940  62.1572752  51.3292199
  52.3273406  62.0361553  50.9654446  53.6801693  61.3658830  51.0771088
  47.9322634  63.7514607  56.7705105  48.2276075  62.8425285  56.7172159
  47.0310669  63.7302346  56.4486107  49.6610475  61.4328705  56.8944430
  49.3323181  60.5526084  56.7119536  50.0149846  61.3776373  57.7820819
  54.7620446  60.2176296  55.4613200  55.4828808  60.5957549  54.9576917
  54.1385750  60.9365173  55.5648178  50.9062408  63.0971754  54.8873855
  50.2131653  63.1716109  54.2313891  50.6614160  62.3332098  55.4095372
  57.7656332  65.1687162  51.1954424  58.7115436  65.0393371  51.2642842
  57.3870577  64.4301824  51.6723852  55.9499249  63.0937139  51.1309309
  55.0430704  62.7970252  51.2072023  56.2275230  62.7966957  50.2643596
  54.7198033  59.9524074  51.2721289  55.5817197  60.2778972  51.5317106
  54.9048378  59.1655570  50.7594354  55.6727476  57.1920117  54.5600998
  55.6606146  58.1361957  54.7169268  56.5650898  57.0090262  54.2660459
  27.9794717  -2.6056002  50.4359823  28.6173127  -2.7249255  49.7323163
  27.8615560  -1.6575158  50.4947775  24.7884423  -2.6528574  50.3721348
  24.4502935  -2.7687509  49.4841883  25.6574192  -3.0537409  50.3522354
  20.6471239  -0.7993098  46.3618239  20.0836104  -0.8903161  45.5934527
  20.5323634  -1.6193193  46.8420731  18.1935671   0.6958094  49.2002459
  18.9856963   0.3548919  48.7848759  18.4332321   0.8053069  50.1204613
  26.2270798   2.8677870  41.6732704  25.5758778   3.4531950  41.2866718
  27.0215161   3.3984065  41.7327741  20.1526425  -0.0432993  42.0719838
  20.9257301  -0.5904006  41.9332714  20.5051824   0.8211256  42.2834300
  22.4892703  -3.8840327  39.7038288  22.7418223  -4.4058805  38.9421751
  21.5517262  -4.0474181  39.8064972  27.7046063   0.5568302  42.2101688
  27.0691896   0.6302928  42.9222593  27.3743469   1.1461901  41.5320767
  22.2088992  -1.9812221  41.9062663  22.0925250  -2.6567317  42.5743747
  22.3191251  -2.4679847  41.0894816  24.5520532  -2.5202074  45.6109352
  24.1878740  -3.0471453  46.3222274  25.4087648  -2.9103605  45.4375838
  26.9501353   0.9704805  52.2736531  26.6502076   1.8729844  52.1652338
  26.6052412   0.7036988  53.1257684  24.1715240  -5.0354516  41.5917368
  24.0514866  -4.5897466  42.4302848  23.4767829  -4.6869199  41.0330906
  21.9322132   7.7349125  45.2407499  21.8546162   8.6856950  45.3195979
  21.3283776   7.3894998  45.8982425  28.4769889   0.4192775  49.8111283
  27.8478751   0.5838489  49.1087351  28.0895551   0.8334385  50.5822247
  32.3559121   1.3547213  47.1655647  31.6710159   1.7346114  46.6152680
  32.4402970   1.9642540  47.8987595  29.6110052  -0.9992828  53.7650990
  29.8226948  -0.3561068  53.0885371  29.5639801  -1.8330511  53.2972920
  24.0297851   0.1567183  47.0761368  24.4936196   0.4354886  46.2865991
  23.7654649  -0.7449372  46.8934459  20.9221932  -0.2961335  50.0141131
  21.4923289   0.1325933  49.3758616  21.5130044  -0.5778751  50.7125317
  22.9666737  -3.7209664  43.8850933  23.6690780  -3.2688621  44.3524860
  22.6347365  -4.3625846  44.5130826  30.7255880   1.8779127  51.9373348
  31.5473324   1.4759315  51.6556029  30.7218283   1.7747362  52.8889464
  24.2060501   3.0931278  43.9613039  24.0706176   3.9382814  44.3897886
  24.7470314   3.2950556  43.1978972  17.6589899   0.6106716  44.5340964
  18.1714419   1.4049967  44.6846528  18.3112612  -0.0866993  44.4674565
  19.4684783   3.7272473  46.6163717  19.6451412   4.6490437  46.4284701
  20.2641617   3.4130892  47.0458097  20.5916099   5.2450646  52.6174059
  21.1423524   5.1167710  51.8451053  19.7527575   5.5445535  52.2668952
  27.9310216   3.9957645  56.1194782  27.9128691   4.8166526  55.6275051
  28.8530136   3.8711720  56.3444923  27.5203248  -3.3929549  40.9984367
  27.0049871  -2.6224944  41.2372755  27.2480556  -4.0664413  41.6217429
  32.4937522  -0.6397194  42.9337541  31.7166965  -0.9786035  42.4892703
  33.1729003  -0.6344571  42.2592506  25.7535983   0.6387767  44.4737102
  25.2257344  -0.0959474  44.1610340  25.2523485   1.4162443  44.2277071
  30.7328829  -1.1663213  49.5904149  30.0752503  -0.4763951  49.6784277
  31.5369228  -0.7766781  49.9338135  29.5434287  -2.8118840  47.6408090
  30.0566169  -2.1788848  48.1429800  30.1935511  -3.4117645  47.2751450
  23.8988583  -1.5432023  37.4772075  22.9915645  -1.7742770  37.6763224
  24.3959615  -2.3394404  37.6646057  26.8056662   7.1665484  40.3968762
  26.1318360   7.4697181  41.0053719  27.1922484   7.9694564  40.0474219
  26.8050166  -3.9377969  45.0169111  27.5521985  -3.4256572  44.7076233
  27.0741756  -4.2593916  45.8773505  25.0776816  -1.4419428  41.9996065
  24.1688036  -1.7260395  42.0968535  25.1071900  -1.0220350  41.1399372
  30.3096084   2.1687161  45.7687233  29.8558411   1.3278071  45.8252423
  29.6790050   2.8048560  46.1062013  28.7529023   4.0063658  46.7037051
  29.0451997   4.5668715  45.9849417  29.2627643   4.2992219  47.4590210
  23.6261710  -3.8290808  48.1005861  23.6810320  -4.7816971  48.0248337
  22.8152912  -3.6731369  48.5847159  24.7752904   0.0989315  39.3384144
  24.3372334  -0.6174826  38.8789781  25.5163345   0.3265430  38.7769235
  23.7162648   4.7844009  47.7930504  23.6738827   5.0104855  46.8639036
  24.6325347   4.5507384  47.9416305  32.8926019  -1.6253488  45.3960463
  32.7543917  -1.4351892  44.4681652  32.5362238  -0.8634105  45.8528514
  32.9195398   0.4423039  50.4071734  33.3531905   0.3498329  51.2554788
  33.6326979   0.4180540  49.7691750  21.8328449   1.6607038  47.5892467
  22.6269047   1.1657358  47.3875042  21.1220141   1.1324901  47.2260173
  26.6523293   4.0425134  51.9404835  26.7060316   4.6116070  52.7082551
  25.7838075   4.2127019  51.5758872  33.7810948   0.4846740  52.9404619
  33.9746838   1.3892551  53.1863894  33.6811566   0.0254159  53.7743205
  24.4099725   2.2336060  51.2690304  24.2710811   1.8654844  52.1416242
  23.6214321   2.7483699  51.0974262  25.0047877   7.3345156  42.6115841
  25.1799633   6.8633200  43.4261463  24.3180665   7.9610923  42.8397101
  25.9604940   1.6117663  48.6579142  25.6254773   1.5718433  49.5536792
  25.4608886   0.9462379  48.1849552  28.8964132  -1.0426303  38.9316202
  28.2793302  -1.7679475  38.8349254  28.4280620  -0.2816943  38.5883276
  30.5518263   3.6672605  56.5921982  30.4930810   2.9831826  55.9252565
  30.9537782   4.4091595  56.1402608  19.5708962  10.4834519  49.3855701
  19.8105560  11.1153043  50.0634719  18.7278159  10.1322559  49.6721060
  30.5535671   1.6312189  54.8235962  29.6662449   1.2938111  54.9462360
  31.1234222   0.8995221  55.0604727  24.0836824   6.2913642  51.7897205
  24.0106995   7.0968613  52.3016509  23.6414217   6.4905608  50.9645226
  23.8726604   5.5285412  45.3000026  23.0894126   6.0707092  45.3938251
  24.5719349   6.0459391  45.6994268  26.5435508   6.1900476  53.9455363
  27.2563480   6.8247941  53.8731265  26.0525536   6.2864342  53.1295365
  28.2653034   0.0951728  45.5172655  27.3309313   0.2153191  45.3477359
  28.4429703  -0.8075805  45.2532665  21.5947421   3.9394919  54.7660934
  22.2956881   4.5731402  54.9190329  21.1242536   4.2809651  54.0056574
  29.7201817   2.2812869  43.0508841  29.9961661   2.1669464  43.9602715
  28.8506316   1.8830354  43.0121014  26.3555881   6.5299220  46.6941655
  26.5378275   5.7120876  47.1569407  27.1788867   6.7466912  46.2566545
  26.6898046   5.4567405  43.9556703  27.2185813   4.9459860  43.3426866
  26.9526266   5.1409935  44.8202236  17.1915139   3.4731274  51.6992037
  17.7768576   2.7274962  51.8319941  16.9939978   3.7835231  52.5828701
  20.0453794   6.5082522  46.7154479  19.3764170   6.9928649  46.2318519
  19.9066664   6.7551742  47.6297858  24.1859063   8.5426265  53.3137138
  24.7377371   8.7057887  54.0786223  24.5265256   9.1330703  52.6417163
  27.3227450   6.4908241  50.3000820  27.1978590   5.6897981  49.7911765
  27.9806541   6.9854434  49.8114790  29.3862359   4.2917261  51.9280370
  28.4392694   4.1722612  51.8558697  29.7345132   3.4039759  52.0106631
  26.3908792   4.0869977  48.1284722  26.2433754   3.1586684  48.3092292
  27.2162285   4.1090068  47.6441797  29.9942914   4.9098536  49.2149595
  30.9189461   4.7041397  49.0774046  29.8258217   4.6614937  50.1238936
  29.7838230   5.4284203  44.5711686  29.9575107   4.8630626  43.8185539
  30.2767121   6.2285098  44.3891176  30.7713402   4.7450968  41.6708585
  31.4664307   5.3657660  41.8895899  31.1136553   3.8946319  41.9460963
  32.6704826   2.1950673  43.1995915  33.1956150   2.5337946  42.4745235
  32.5827178   1.2597688  43.0159050  24.3324874   6.1084747  55.3285792
  24.6412001   5.8633894  56.2008492  25.1300356   6.3131385  54.8404662
  24.3545486   8.2622656  47.5591169  23.9150477   7.7699035  48.2524025
  25.1053603   7.7195624  47.3183244  16.8337825   4.4534197  47.5615797
  17.6595845   4.1537969  47.1814440  16.4831877   3.6841820  48.0105585
  21.8019358   3.8060665  49.6313470  21.1799368   3.1431370  49.3315698
  22.4724225   3.8321797  48.9487118  15.0346430   2.3720524  48.5204730
  14.1978339   1.9442698  48.3388732  15.0070076   2.5652967  49.4575522
  32.4796607  -0.3223957  55.8179842  32.5294612  -0.4873949  56.7595365
  32.3710530  -1.1896698  55.4277723  21.3632865   2.3564589  43.1071931
  21.5120986   3.0400053  42.4538604  22.1699309   2.3369679  43.6221387
  33.9814804   2.0972985  56.0621864  33.6899612   2.4602965  56.8985324
  33.3686935   1.3839993  55.8835196  35.1810486  -0.3374136  48.5824434
  36.0157377   0.1015668  48.7461994  35.3169615  -0.8135482  47.7632680
  32.2301992  -2.7794401  54.5301921  32.7056113  -2.5866754  53.7220773
  31.3067557  -2.7235215  54.2845305  24.8628271   4.8512719  40.5783678
  24.2902238   5.4702906  40.1254150  25.4361065   5.4012081  41.1123600
  28.0825531   5.1349869  41.7092261  29.0156204   5.0695431  41.9125136
  27.9948744   5.9706136  41.2506793  30.7113547   4.4515740  38.6696208
  30.6327179   4.1175603  39.5631966  31.5323214   4.9437508  38.6687680
  25.2475069  -3.8126468  37.9199731  26.1934174  -3.9420260  37.9888149
  24.8689314  -4.5511806  38.3969159  17.1458536   6.5846812  49.2829611
  17.0113004   5.8247212  48.7167609  16.7290598   7.3087711  48.8158400
  28.2817499   1.7683735  38.2906186  28.9853349   1.9733738  38.9063842
  27.5580148   2.3360497  38.5555270  29.1115309  -2.4806404  44.4108457
  29.0550511  -2.0237852  43.5716089  29.6643652  -3.2415719  44.2331299
  20.3027662   7.4816129  49.4948054  20.1860046   8.4261561  49.3926744
  19.4820108   7.1789690  49.8833853  30.1904197   2.2066264  40.3404647
  31.0249800   1.7747463  40.1582121  30.0288539   2.0348278  41.2681541
  29.8450089  -1.2901622  41.7060986  29.7898893  -1.4557351  40.7649430
  29.2196144  -0.5825589  41.8623176  21.3282176   8.1344391  52.7103982
  22.2309423   8.1668001  53.0270477  21.1019546   7.2044841  52.7250318
  23.0835778   6.8875377  49.3714061  22.1331409   6.8877239  49.2578433
  23.3868264   6.1408112  48.8550095  38.8188472  12.7235915  50.4359823
  39.4566882  12.6042663  49.7323163  38.7009315  13.6716759  50.4947775
  35.6278178  12.6763344  50.3721348  35.2896689  12.5604408  49.4841883
  36.4967946  12.2754509  50.3522354  31.4864994  14.5298820  46.3618239
  30.9229859  14.4388757  45.5934527  31.3717389  13.7098724  46.8420731
  36.1097961  13.8298195  56.3307553  36.0986602  13.4350994  55.4588057
  36.2718600  13.0964268  56.9241325  29.0329426  16.0250012  49.2002459
  29.8250717  15.6840836  48.7848759  29.2726076  16.1344987  50.1204613
  37.0664552  18.1969788  41.6732704  36.4152532  18.7823868  41.2866718
  37.8608915  18.7275983  41.7327741  30.9920179  15.2858925  42.0719838
  31.7651055  14.7387912  41.9332714  31.3445578  16.1503174  42.2834300
  32.8305222  16.6135307  55.2786737  32.5395088  17.5180938  55.1633404
  33.4662206  16.6551835  55.9930807  33.7561429  13.9912156  51.8688097
  34.3525001  13.7668178  51.1545060  33.8136400  13.2496901  52.4713545
  33.3286457  11.4451591  39.7038288  33.5811978  10.9233112  38.9421751
  32.3911016  11.2817736  39.8064972  38.3729740  10.4487369  47.5113031
  39.1592829  10.0306792  47.1603448  38.6368444  11.3533461  47.6794680
  38.5439817  15.8860220  42.2101688  37.9085650  15.9594846  42.9222593
  38.2137224  16.4753818  41.5320767  43.7738167  10.3862602  48.4146010
  44.5063339   9.8161819  48.6483839  43.0177523   9.9984203  48.8552515
  33.0482746  13.3479697  41.9062663  32.9319004  12.6724600  42.5743747
  33.1585006  12.8612071  41.0894816  35.3914287  12.8089844  45.6109352
  35.0272494  12.2820465  46.3222274  36.2481403  12.4188313  45.4375838
  41.2963588   4.0984177  52.8740618  40.9646912   4.9679588  52.6501833
  40.7009201   3.7820461  53.5534649  35.0319774   7.8379744  40.6070701
  35.1994176   8.7059980  40.9741172  34.8416943   8.0007025  39.6831990
  37.7895107  16.2996723  52.2736531  37.4895830  17.2021761  52.1652338
  37.4446167  16.0328906  53.1257684  31.2407589  12.7510519  48.3073236
  30.3158085  12.6186734  48.5150927  31.4892002  13.5304739  48.8043178
  41.1892251   8.8179263  49.9533968  40.2809128   8.7494671  49.6592729
  41.1379847   9.2951208  50.7815794  35.0108995  10.2937401  41.5917368
  34.8908620  10.7394452  42.4302848  34.3161583  10.6422719  41.0330906
  28.6016400  12.3943793  49.1417025  28.7308781  12.6478272  50.0556436
  27.9213851  12.9871501  48.8221680  35.2633117  10.2368908  57.8968866
  34.4866451  10.7962829  57.8871730  35.9023680  10.7225691  58.4183736
  43.0553897   7.0195701  51.7311842  42.4128278   7.3128234  51.0851637
  42.5508826   6.9048622  52.5365039  40.7094061  10.7658874  42.4197702
  41.6211917  10.9986261  42.2445399  40.2003708  11.3495919  41.8572780
  33.5179489  13.0454362  57.4586833  34.2594173  13.5839406  57.1821656
  32.8116474  13.6720650  57.6158385  38.9934829  15.1883502  56.0558994
  39.4018185  14.7465913  55.3113627  38.2712090  14.6136130  56.3093187
  35.3465899  10.1256109  53.4292551  36.1927094  10.5495523  53.5727200
  35.2864536   9.4689733  54.1231114  39.3163643  15.7484693  49.8111283
  38.6872506  15.9130407  49.1087351  38.9289305  16.1626302  50.5822247
  43.1952875  16.6839131  47.1655647  42.5103913  17.0638032  46.6152680
  43.2796724  17.2934457  47.8987595  38.4965344   7.7860477  55.0873725
  38.2526276   8.5402538  54.5508001  38.7725275   8.1645825  55.9220972
  40.4503807  14.3299090  53.7650990  40.6620702  14.9730850  53.0885371
  40.4033555  13.4961406  53.2972920  38.0530036   6.9416910  50.6687563
  37.1914515   7.2398164  50.9604300  38.0792470   7.1587309  49.7368595
  34.8691605  15.4859101  47.0761368  35.3329951  15.7646804  46.2865991
  34.6048403  14.5842545  46.8934459  31.7615686  15.0330582  50.0141131
  32.3317043  15.4617851  49.3758616  32.3523798  14.7513167  50.7125317
  33.8060491  11.6082253  43.8850933  34.5084535  12.0603297  44.3524860
  33.4741120  10.9666072  44.5130826  32.2540853  10.1994010  58.2602143
  31.6239513  10.8810291  58.4937540  32.1476941  10.0877092  57.3155281
  27.5485825   9.8665806  49.1868067  26.7584879  10.1223334  48.7108178
  28.0397073  10.6814144  49.2920107  41.5649635  17.2071045  51.9373348
  42.3867078  16.8051232  51.6556029  41.5612038  17.1039279  52.8889464
  29.5000571  10.2310385  46.1451544  28.7031734  10.3429079  46.6635039
  29.2726163  10.5697037  45.2792434  35.3306238  16.7555088  54.0934058
  35.3950671  17.2175496  54.9292230  34.6217162  16.1252453  54.2216368
  25.8323528  10.1196296  51.6183058  26.0831567  11.0043306  51.8840634
  26.3683077   9.9400898  50.8458150  49.6555628  13.5509794  48.2858319
  48.9019336  12.9817192  48.1302324  49.7903169  13.5172458  49.2328954
  35.0454256  18.4223196  43.9613039  34.9099931  19.2674732  44.3897886
  35.5864068  18.6242474  43.1978972  28.4983653  15.9398634  44.5340964
  29.0108174  16.7341884  44.6846528  29.1506366  15.2424924  44.4674565
  30.3078538  19.0564390  46.6163717  30.4845166  19.9782355  46.4284701
  31.1035371  18.7422809  47.0458097  34.4489556   5.9172655  58.2147650
  35.1899270   6.5179808  58.1352113  34.6807479   5.1750293  57.6565693
  29.5930894  11.1029022  56.4925880  29.4784410  10.2014279  56.7932979
  28.7375412  11.3492719  56.1410697  36.6722732  19.0446762  58.0913381
  36.2286586  18.2583141  57.7734285  37.3339946  19.2325913  57.4257271
  31.4309853  20.5742564  52.6174059  31.9817279  20.4459627  51.8451053
  30.5921329  20.8737453  52.2668952  38.7703970  19.3249562  56.1194782
  38.7522446  20.1458443  55.6275051  39.6923890  19.2003638  56.3444923
  35.2277024  16.8393692  56.9618290  35.7605361  16.0781980  56.7317598
  34.6991106  16.5467344  57.7042445  38.3946719   1.9453758  52.4911932
  38.0510989   2.8355399  52.4151043  38.7625682   1.7555415  51.6281517
  26.4632570  14.2687288  45.3100534  27.3007792  14.6784297  45.0934242
  26.6410838  13.3286730  45.2800728  38.3597002  11.9362369  40.9984367
  37.8443626  12.7066974  41.2372755  38.0874311  11.2627505  41.6217429
  35.9444113   6.7812070  46.0569606  35.0885709   6.3918920  45.8775244
  36.3571065   6.8604030  45.1969391  37.4743260   4.3158413  50.4561165
  36.9708055   4.2788548  49.6428971  37.7673867   5.2251156  50.5157822
  33.7186146   4.3997143  49.4627347  34.5839142   4.2039951  49.1033236
  33.7863655   4.1707494  50.3896704  43.3331276  14.6894724  42.9337541
  42.5560719  14.3505883  42.4892703  44.0122757  14.6947347  42.2592506
  38.1483305   9.8089461  42.8244148  37.8433441  10.1235610  43.6754292
  39.1013747   9.8870881  42.8671481  36.5929737  15.9679684  44.4737102
  36.0651099  15.2332444  44.1610340  36.0917240  16.7454361  44.2277071
  41.5722583  14.1628705  49.5904149  40.9146258  14.8527966  49.6784277
  42.3762982  14.5525137  49.9338135  31.3248465   6.6299351  46.8343714
  31.8992217   6.4074532  46.1016907  31.9119447   6.6988045  47.5872315
  40.3828042  12.5173077  47.6408090  40.8959924  13.1503069  48.1429800
  41.0329266  11.9174273  47.2751450  31.6518052   8.6603812  40.8539599
  30.8155364   8.9978498  41.1748874  31.5122822   8.5252791  39.9166736
  33.6271132   3.5040599  45.5618783  32.9735545   3.1889617  44.9375398
  33.5851607   2.8816340  46.2878606  34.7382337  13.7859895  37.4772075
  33.8309399  13.5549148  37.6763224  35.2353369  12.9897514  37.6646057
  36.8608873   9.9922533  49.8866431  35.9431434  10.2137480  49.7288119
  37.2769016  10.0668844  49.0278138  37.6443921  11.3913949  45.0169111
  38.3915740  11.9035346  44.7076233  37.9135510  11.0698001  45.8773505
  35.9170571  13.8872489  41.9996065  35.0081790  13.6031522  42.0968535
  35.9465655  14.3071568  41.1399372  41.1489838  17.4979079  45.7687233
  40.6952165  16.6569989  45.8252423  40.5183805  18.1340477  46.1062013
  40.0922758   8.4271065  46.9987900  39.3545515   7.9148451  47.3298143
  40.3449531   7.9871447  46.1871177  39.5922777  19.3355576  46.7037051
  39.8845752  19.8960633  45.9849417  40.1021398  19.6284137  47.4590210
  40.1934385   1.2047317  47.5929670  40.4993262   0.3444680  47.3055585
  40.9186990   1.7964937  47.3928664  26.4858741  11.6078004  45.9811268
  26.2883141  11.0147364  45.2562334  25.9305405  11.3030214  46.6987206
  34.4655465  11.5001110  48.1005861  34.5204075  10.5474946  48.0248337
  33.6546667  11.6560549  48.5847159  35.6146659  15.4281233  39.3384144
  35.1766088  14.7117092  38.8789781  36.3557099  15.6557348  38.7769235
  32.4047825  10.1178170  45.8596240  31.5915690  10.4172340  46.2661432
  32.9006819   9.7233859  46.5770722  34.5556403  20.1135927  47.7930504
  34.5132581  20.3396773  46.8639036  35.4719101  19.8799301  47.9416305
  38.0022036  10.5819994  54.6911134  38.3571424  10.8091467  55.5505599
  38.6494168  10.9138371  54.0688389  43.7319773  13.7038430  45.3960463
  43.5937672  13.8940026  44.4681652  43.3755992  14.4657813  45.8528514
  31.8961899   7.6896525  51.4757475  32.5361279   7.5485284  50.7780438
  31.0639430   7.4031039  51.0996077  43.7589153  15.7714957  50.4071734
  44.1925660  15.6790246  51.2554788  44.4720734  15.7472458  49.7691750
  32.6722203  16.9898956  47.5892467  33.4662802  16.4949276  47.3875042
  31.9613896  16.4616819  47.2260173  37.4917048  19.3717051  51.9404835
  37.5454070  19.9407988  52.7082551  36.6231829  19.5418936  51.5758872
  28.9804967  11.1342037  43.6652220  28.0502555  11.0726493  43.8822182
  29.0762439  10.6117990  42.8688861  28.8990516   7.6596850  46.2530461
  29.1597333   8.5742184  46.1439622  29.7207688   7.1921293  46.4027074
  30.3715441   9.0734607  53.4229286  31.0438495   8.8651970  52.7741935
  29.5445228   8.8756693  52.9834518  44.6204703  15.8138658  52.9404619
  44.8140593  16.7184468  53.1863894  44.5205321  15.3546077  53.7743205
  36.2741013   5.6996548  55.4394947  35.6268928   6.3986498  55.3459423
  37.0442029   6.1332692  55.8071195  39.6819811  15.9645401  58.5145500
  39.5305318  15.7355952  57.5975584  39.6724491  16.9216002  58.5276845
  36.4505148  13.5377313  53.4991767  37.3797208  13.6888473  53.3260734
  36.0296178  13.6261334  52.6440413  35.2493479  17.5627978  51.2690304
  35.1104565  17.1946762  52.1416242  34.4608076  18.0775617  51.0974262
  36.7998695  16.9409580  48.6579142  36.4648527  16.9010350  49.5536792
  36.3002640  16.2754296  48.1849552  30.7742938  12.3477210  54.1831723
  30.6362736  11.6157449  54.7843262  31.6847862  12.2586111  53.9015911
  39.7357886  14.2865615  38.9316202  39.1187057  13.5612443  38.8349254
  39.2674375  15.0474975  38.5883276  33.4025239  12.0597170  53.6715403
  34.1124858  11.4190362  53.6302021  33.3594547  12.3110065  54.5941584
  41.3912018  18.9964523  56.5921982  41.3324564  18.3123743  55.9252565
  41.7931536  19.7383513  56.1402608  32.1154173   9.0462388  55.4911042
  31.5791530   8.5953126  56.1432639  31.5270882   9.1808296  54.7481507
  31.5256432   8.5051039  38.0537506  30.6485898   8.3839840  37.6899753
  32.0014185   7.7137117  37.8016395  41.3929425  16.9604107  54.8235962
  40.5056204  16.6230029  54.9462360  41.9627976  16.2287138  55.0604727
  23.0458572  13.2928199  48.1479013  23.7329612  12.9789929  47.5600028
  22.8906701  14.1969563  47.8746264  27.8493294   8.1818395  52.5764037
  27.7651483   7.5744065  51.8414447  27.0276001   8.6727414  52.5773533
  34.9230579  21.6205559  51.7897205  34.8500750  22.4260531  52.3016509
  34.4807972  21.8197525  50.9645226  34.7120358  20.8577329  45.3000026
  33.9287880  21.3999010  45.3938251  35.4113103  21.3751309  45.6994268
  38.0217008   6.6671959  47.9434232  38.5185708   5.9141921  47.6235302
  37.2503990   6.7036276  47.3777441  45.8746766  12.3712324  49.5852523
  45.8636642  13.2537040  49.2146456  45.0064145  12.0183875  49.3907060
  37.3829262  21.5192393  53.9455363  38.0957234  22.1539858  53.8731265
  36.8919291  21.6156259  53.1295365  39.1046789  15.4243646  45.5172655
  38.1703068  15.5445109  45.3477359  39.2823457  14.5216113  45.2532665
  34.6051977   8.8089342  47.6705916  34.2349765   8.2560382  48.3586822
  35.1011069   8.2047475  47.1180916  42.4919340  11.2660965  46.0522689
  42.9579792  12.0988957  45.9782992  42.9426841  10.8005947  46.7567948
  32.4341176  19.2686837  54.7660934  33.1350635  19.9023320  54.9190329
  31.9636291  19.6101568  54.0056574  40.5595571  17.6104787  43.0508841
  40.8355415  17.4961381  43.9602715  39.6900070  17.2122272  43.0121014
  40.4636003   3.6341552  50.0913591  39.5499083   3.8645779  50.2595798
  40.8929104   3.7179996  50.9427623  40.2342462  11.8231444  52.5913485
  39.5813912  12.0707352  51.9365937  40.6122841  11.0095583  52.2575962
  37.1949635  21.8591138  46.6941655  37.3772030  21.0412793  47.1569407
  38.0182621  22.0758830  46.2566545  37.5291801  20.7859323  43.9556703
  38.0579567  20.2751777  43.3426866  37.7920020  20.4701853  44.8202236
  36.2830035  12.5651255  59.0779522  35.6070672  12.4645385  59.7481897
  37.1057668  12.4090469  59.5415519  28.0308894  18.8023192  51.6992037
  28.6162330  18.0566880  51.8319941  27.8333732  19.1127149  52.5828701
  22.6226548  11.3728792  50.4196480  22.6610648  10.8392383  51.2133598
  22.1166841  10.8463998  49.8007457  35.0252817  23.8718183  53.3137138
  35.5771125  24.0349804  54.0786223  35.3659011  24.4622621  52.6417163
  30.0017311   6.2193333  53.9159022  30.0658637   7.0808164  53.5036420
  29.9384431   5.6067334  53.1831381  29.4769583   8.2916465  57.5632057
  30.1041622   7.9093543  58.1769581  28.6197502   8.0730667  57.9287749
  39.8763692  18.6979440  59.1685792  40.4203596  19.3109399  58.6740747
  39.2950537  19.2559019  59.6852805  26.2535126  10.0992894  43.4950412
  26.5488567   9.1903573  43.4417465  25.3523162  10.0780634  43.1731414
  38.1621205  21.8200158  50.3000820  38.0372344  21.0189898  49.7911765
  38.8200296  22.3146352  49.8114790  29.7829373   8.1748891  49.4777960
  29.0615959   8.7884859  49.3385433  30.5722629   8.7106656  49.3994606
  40.2256113  19.6209178  51.9280370  39.2786449  19.5014530  51.8558697
  40.5738886  18.7331676  52.0106631  32.5855686   5.5103317  55.7518612
  33.1090088   5.7565614  56.5144921  32.3668020   6.3423352  55.3321749
  27.9822968   7.7806992  43.6189737  27.6535674   6.9004371  43.4364843
  28.3362338   7.7254661  44.5066126  37.2302546  19.4161895  48.1284722
  37.0827509  18.4878602  48.3092292  38.0556040  19.4381985  47.6441797
  31.0964791   8.0679962  43.9865214  31.4360863   8.5965883  43.2643823
  31.5436911   8.4060368  44.7623781  40.8336668  20.2390453  49.2149595
  41.7583216  20.0333315  49.0774046  40.6651972  19.9906855  50.1238936
  33.7908232   6.4517012  53.4368282  33.4505052   5.6524826  53.8388962
  33.0847238   6.7518723  52.8645116  34.4424703   3.5366325  51.8895605
  35.2650773   3.0626803  51.7674496  34.6862767   4.3156809  52.3894292
  33.0832938   6.5654583  42.1858507  33.8041300   6.9435836  41.6822224
  32.4598242   7.2843460  42.2893485  37.2264061   7.2699732  43.1216839
  37.4427675   8.1524370  42.8205668  36.7458128   6.8785946  42.3922481
  31.9663282  10.2285446  49.6987584  31.8207863  10.5425749  50.5911866
  31.4888486  10.8470346  49.1458483  33.8259665   7.2187994  49.7468474
  33.8121234   6.3229087  49.4100772  34.5432093   7.2258657  50.3806760
  35.6785796   7.6525334  51.7921601  35.4203574   8.5742404  51.7905931
  35.1470836   7.2555768  52.4822065  40.6231984  20.7576121  44.5711686
  40.7968862  20.1922543  43.8185539  41.1160876  21.5577016  44.3891176
  26.4408944  12.7690790  52.6375245  25.8962412  13.5450598  52.7695520
  27.3188294  13.1161594  52.4794367  33.2296561   6.1002374  45.0156044
  33.3512472   5.1719020  45.2146931  32.9398603   6.1141060  44.1034359
  36.0987751   3.7857284  48.1522764  36.1209448   3.8496617  47.1974743
  36.5155810   2.9461793  48.3463270  46.4771376  13.5212544  46.1901986
  46.9202522  12.7719869  45.7921109  45.5997886  13.5122680  45.8075718
  41.6107157  20.0742885  41.6708585  42.3058062  20.6949578  41.8895899
  41.9530307  19.2238236  41.9460963  27.2274966  11.8960686  55.5305402
  26.4856702  12.0443322  56.1170033  26.9067710  12.1568952  54.6672152
  43.5098580  17.5242591  43.1995915  44.0349904  17.8629864  42.4745235
  43.4220933  16.5889606  43.0159050  35.1718629  21.4376664  55.3285792
  35.4805755  21.1925811  56.2008492  35.9694111  21.6423303  54.8404662
  35.1939241  23.5914574  47.5591169  34.7544231  23.0990953  48.2524025
  35.9447358  23.0487542  47.3183244  27.6731580  19.7826115  47.5615797
  28.4989600  19.4829887  47.1814440  27.3225632  19.0133737  48.0105585
  32.6413113  19.1352583  49.6313470  32.0193122  18.4723288  49.3315698
  33.3117980  19.1613715  48.9487118  25.8740185  17.7012441  48.5204730
  25.0372093  17.2734616  48.3388732  25.8463830  17.8944885  49.4575522
  32.7137640   7.6134371  59.2245976  32.7625796   8.4896494  58.8423746
  33.2560155   7.0711764  58.6517620  43.1992486  18.1575494  58.5047113
  42.4088030  18.1399633  57.9651613  42.9625841  18.6963788  59.2596150
  43.3190361  15.0067961  55.8179842  43.3688366  14.8417968  56.7595365
  43.2104285  14.1395220  55.4277723  32.2026620  17.6856506  43.1071931
  32.3514740  18.3691971  42.4538604  33.0093063  17.6661597  43.6221387
  40.6094124  10.9898889  57.1339149  41.5103986  10.8505354  56.8423146
  40.6842098  11.1553344  58.0737326  34.9436929   8.3665744  55.9792335
  34.0740238   8.6599310  55.7074924  35.1796409   8.9506189  56.6999599
  44.8208558  17.4264902  56.0621864  44.5293366  17.7894883  56.8985324
  44.2080689  16.7131911  55.8835196  46.0204240  14.9917782  48.5824434
  46.8551132  15.4307586  48.7461994  46.1563369  14.5156435  47.7632680
  43.0695746  12.5497517  54.5301921  43.5449868  12.7425163  53.7220773
  42.1461312  12.6056703  54.2845305  29.9579253  13.7121684  44.1133000
  29.7125295  12.8084014  44.3113210  30.1275167  13.7138835  43.1712478
  37.6475963   4.5845361  53.4957755  38.1657907   5.3206387  53.1704244
  37.2931095   4.8909354  54.3304515  29.2274900   9.4450042  41.6119161
  28.5344145   9.5194397  40.9559197  28.9826652   8.6810385  42.1340678
  37.8988557   1.0045643  49.0158652  38.1790311   0.3368832  49.6419079
  38.6839164   1.1974739  48.5033316  41.7697415   9.4263277  52.7630227
  42.7214838   9.5261375  52.7842451  41.6000866   8.6341546  53.2728311
  39.7911795   6.5118860  52.9489628  39.1961727   6.7923873  52.2536117
  39.5061491   7.0012761  53.7206369  44.2485493  12.6469397  51.8772527
  44.2161813  11.7085397  52.0632211  44.8586117  12.7253433  51.1438352
  36.0868824  11.5165450  37.9199731  37.0327929  11.3871658  37.9888149
  35.7083069  10.7780112  38.3969159  44.3979982   9.4380440  51.9230810
  43.8819030   8.6538897  51.7360739  45.2819930   9.1099157  52.0877329
  42.0590708   3.1821456  47.8826623  41.8615530   2.8736544  48.7669955
  42.6690414   3.9083095  48.0124552  50.0662043  13.7085404  51.0178564
  50.7965431  13.4470692  51.5786267  49.4568988  12.9714126  51.0580632
  48.1477340  11.8493266  51.6153015  47.4210504  11.7149231  51.0069506
  47.7324627  12.1570095  52.4209733  35.9707516  15.5683196  59.3800388
  36.8910526  15.7461795  59.5740434  35.9357099  14.6239241  59.2280087
  34.2711741   9.4415426  37.8554616  33.3643196   9.1448539  37.9317330
  34.5487722   9.1445244  36.9888902  25.1889681  10.7621789  48.3053662
  24.8692466   9.9087098  48.0128036  24.6423110  10.9770368  49.0611630
  28.9669589  13.4784230  52.0223169  29.1855599  14.4101338  52.0411203
  29.3795363  13.1192205  52.8077973  35.8873807   3.9852316  44.0098857
  35.0774535   3.6399401  44.3854103  36.5758224   3.6759860  44.5986469
  37.8164355   3.0630363  45.6323154  38.3695394   3.4825816  46.2913177
  38.0534441   2.1366111  45.6746110  33.8397454   9.0517436  61.4125918
  33.7394181  10.0011793  61.3438009  33.6218996   8.7235675  60.5401988
  33.0410526   6.3002361  37.9966595  33.9029690   6.6257260  38.2562413
  33.2260870   5.5133857  37.4839661  25.0577941  14.3824701  50.2746784
  24.3641413  13.9678654  49.7616738  25.8050932  14.4245237  49.6780203
  41.1943162   5.1730888  45.1401818  40.6141831   5.8315692  44.7579871
  40.9279095   4.3508232  44.7289236  39.6446729   4.5735945  47.3423139
  40.1446507   4.6852480  46.5337457  40.2882336   4.2696998  47.9823947
  33.7028724  12.4814575  60.2290980  33.2195806  13.2814935  60.4354869
  33.7889663  12.4922520  59.2758423  26.9714684  14.3142955  48.1512799
  26.9485372  14.4130642  47.1994682  27.2815320  15.1608106  48.4729965
  29.6302062  16.3719110  52.2659413  30.5845315  16.3403052  52.1989345
  29.4314585  15.9109734  53.0809639  30.2201444  14.9420226  54.8330211
  31.0394333  15.4364305  54.8565048  30.4938252  14.0252194  54.8047778
  39.9768040   7.3330978  44.1958166  39.0893895   7.6180629  43.9778361
  40.3922029   7.1724742  43.3485443  43.3282576   7.3577499  47.9112506
  44.1042966   7.8473952  48.1837123  42.6030710   7.7835553  48.3684375
  45.7655135   8.0705118  48.9686446  46.3599626   7.8300854  48.2579755
  45.8381719   7.3512249  49.5959983  27.9852291  21.9138729  49.2829611
  27.8506759  21.1539130  48.7167609  27.5684353  22.6379629  48.8158400
  39.1211254  17.0975653  38.2906186  39.8247104  17.3025655  38.9063842
  38.3973902  17.6652415  38.5555270  39.9509064  12.8485514  44.4108457
  39.8944265  13.3054066  43.5716089  40.5037406  12.0876199  44.2331299
  43.7613870   8.6375246  45.2358576  43.5050804   8.2371882  46.0666784
  43.1366738   9.3519040  45.1108715  48.0726208  11.3771319  47.7429868
  47.5125766  11.4464509  48.5161430  47.4669711  11.2012304  47.0229364
  31.1421416  22.8108046  49.4948054  31.0253801  23.7553479  49.3926744
  30.3213863  22.5081608  49.8833853  41.0297951  17.5358182  40.3404647
  41.8643555  17.1039380  40.1582121  40.8682294  17.3640196  41.2681541
  40.6843843  14.0390295  41.7060986  40.6292647  13.8734567  40.7649430
  40.0589898  14.7466328  41.8623176  25.4736358   9.2758360  55.5322408
  26.1195222   8.7657314  56.0209633  25.2653509  10.0127041  56.1065833
  37.9989750  16.3439207  61.0314549  38.8680910  16.5179859  60.6701184
  37.5196502  17.1633624  60.9090278  33.9939969   3.5398404  41.2846304
  33.9818638   4.4840244  41.4414575  34.8863391   3.3568550  40.9905765
  32.1675931  23.4636308  52.7103982  33.0703177  23.4959918  53.0270477
  31.9413301  22.5336759  52.7250318  33.9229533  22.2167295  49.3714061
  32.9725164  22.2169156  49.2578433  34.2262019  21.4700029  48.8550095
  37.8092088   0.1341181  45.5392241  37.0424484  -0.4200332  45.6848923
  38.2202793   0.2063050  46.4006393  49.6582226  28.0527833  50.4359823
  50.2960636  27.9334580  49.7323163  49.5403069  29.0008677  50.4947775
  46.4671932  28.0055261  50.3721348  46.1290444  27.8896326  49.4841883
  47.3361701  27.6046426  50.3522354  46.9491715  29.1590113  56.3307553
  46.9380356  28.7642911  55.4588057  47.1112355  28.4256186  56.9241325
  39.8723180  31.3541929  49.2002459  40.6644472  31.0132754  48.7848759
  40.1119830  31.4636904  50.1204613  43.6698977  31.9427225  55.2786737
  43.3788843  32.8472856  55.1633404  44.3055961  31.9843752  55.9930807
  44.5955183  29.3204073  51.8688097  45.1918756  29.0960096  51.1545060
  44.6530155  28.5788819  52.4713545  49.2123495  25.7779287  47.5113031
  49.9986584  25.3598710  47.1603448  49.4762199  26.6825379  47.6794680
  49.3833572  31.2152137  42.2101688  48.7479405  31.2886764  42.9222593
  49.0530978  31.8045736  41.5320767  54.6131922  25.7154520  48.4146010
  55.3457094  25.1453737  48.6483839  53.8571277  25.3276121  48.8552515
  52.1357342  19.4276094  52.8740618  51.8040667  20.2971505  52.6501833
  51.5402955  19.1112378  53.5534649  45.8713528  23.1671661  40.6070701
  46.0387931  24.0351898  40.9741172  45.6810698  23.3298943  39.6831990
  48.6288862  31.6288640  52.2736531  48.3289585  32.5313679  52.1652338
  48.2839921  31.3620823  53.1257684  52.0286005  24.1471180  49.9533968
  51.1202883  24.0786589  49.6592729  51.9773601  24.6243125  50.7815794
  45.8502749  25.6229319  41.5917368  45.7302375  26.0686370  42.4302848
  45.1555338  25.9714637  41.0330906  39.4410154  27.7235711  49.1417025
  39.5702535  27.9770190  50.0556436  38.7607605  28.3163419  48.8221680
  46.1026871  25.5660826  57.8968866  45.3260205  26.1254746  57.8871730
  46.7417434  26.0517609  58.4183736  53.8947652  22.3487619  51.7311842
  53.2522032  22.6420152  51.0851637  53.3902580  22.2340539  52.5365039
  51.5487815  26.0950792  42.4197702  52.4605672  26.3278179  42.2445399
  51.0397463  26.6787836  41.8572780  44.3573243  28.3746279  57.4586833
  45.0987928  28.9131323  57.1821656  43.6510229  29.0012568  57.6158385
  49.8328583  30.5175420  56.0558994  50.2411939  30.0757830  55.3113627
  49.1105845  29.9428047  56.3093187  46.1859653  25.4548027  53.4292551
  47.0320848  25.8787440  53.5727200  46.1258291  24.7981651  54.1231114
  50.1557398  31.0776610  49.8111283  49.5266260  31.2422325  49.1087351
  49.7683060  31.4918220  50.5822247  54.0346630  32.0131048  47.1655647
  53.3497668  32.3929950  46.6152680  54.1190479  32.6226375  47.8987595
  49.3359099  23.1152395  55.0873725  49.0920030  23.8694456  54.5508001
  49.6119029  23.4937743  55.9220972  51.2897561  29.6591007  53.7650990
  51.5014457  30.3022767  53.0885371  51.2427310  28.8253324  53.2972920
  48.8923790  22.2708828  50.6687563  48.0308269  22.5690082  50.9604300
  48.9186225  22.4879227  49.7368595  44.6454246  26.9374171  43.8850933
  45.3478289  27.3895215  44.3524860  44.3134874  26.2957990  44.5130826
  43.0934607  25.5285928  58.2602143  42.4633268  26.2102208  58.4937540
  42.9870695  25.4169009  57.3155281  38.3879580  25.1957724  49.1868067
  37.5978634  25.4515252  48.7108178  38.8790827  26.0106061  49.2920107
  52.4043389  32.5362963  51.9373348  53.2260833  32.1343150  51.6556029
  52.4005792  32.4331197  52.8889464  46.1699993  32.0847006  54.0934058
  46.2344425  32.5467413  54.9292230  45.4610917  31.4544371  54.2216368
  36.6717283  25.4488214  51.6183058  36.9225321  26.3335224  51.8840634
  37.2076831  25.2692816  50.8458150  60.4949382  28.8801711  48.2858319
  59.7413091  28.3109109  48.1302324  60.6296923  28.8464376  49.2328954
  42.3715350  19.8306693  60.6227394  41.9782296  19.2772892  61.2975038
  43.1881490  20.1417272  61.0133911  45.2883311  21.2464573  58.2147650
  46.0293024  21.8471726  58.1352113  45.5201234  20.5042210  57.6565693
  40.4324649  26.4320940  56.4925880  40.3178164  25.5306197  56.7932979
  39.5769167  26.6784637  56.1410697  47.5116487  34.3738680  58.0913381
  47.0680341  33.5875059  57.7734285  48.1733700  34.5617831  57.4257271
  42.2703608  35.9034482  52.6174059  42.8211033  35.7751545  51.8451053
  41.4315084  36.2029371  52.2668952  49.6097725  34.6541480  56.1194782
  49.5916200  35.4750361  55.6275051  50.5317645  34.5295555  56.3444923
  46.0670779  32.1685610  56.9618290  46.5999116  31.4073898  56.7317598
  45.5384860  31.8759261  57.7042445  49.2340474  17.2745675  52.4911932
  48.8904743  18.1647317  52.4151043  49.6019436  17.0847333  51.6281517
  49.1990757  27.2654287  40.9984367  48.6837380  28.0358891  41.2372755
  48.9268065  26.5919423  41.6217429  46.7837868  22.1103987  46.0569606
  45.9279464  21.7210838  45.8775244  47.1964819  22.1895948  45.1969391
  48.3137014  19.6450331  50.4561165  47.8101810  19.6080466  49.6428971
  48.6067621  20.5543073  50.5157822  44.5579900  19.7289060  49.4627347
  45.4232897  19.5331869  49.1033236  44.6257409  19.4999412  50.3896704
  54.1725031  30.0186641  42.9337541  53.3954474  29.6797801  42.4892703
  54.8516512  30.0239264  42.2592506  48.9877060  25.1381379  42.8244148
  48.6827195  25.4527528  43.6754292  49.9407502  25.2162799  42.8671481
  52.4116338  29.4920622  49.5904149  51.7540012  30.1819884  49.6784277
  53.2156737  29.8817054  49.9338135  42.1642219  21.9591268  46.8343714
  42.7385971  21.7366450  46.1016907  42.7513202  22.0279963  47.5872315
  51.2221796  27.8464995  47.6408090  51.7353678  28.4794987  48.1429800
  51.8723020  27.2466191  47.2751450  44.4664887  18.8332517  45.5618783
  43.8129299  18.5181534  44.9375398  44.4245361  18.2108258  46.2878606
  47.7002627  25.3214451  49.8866431  46.7825189  25.5429398  49.7288119
  48.1162771  25.3960761  49.0278138  48.4837675  26.7205866  45.0169111
  49.2309494  27.2327264  44.7076233  48.7529265  26.3989919  45.8773505
  51.9883593  32.8270997  45.7687233  51.5345920  31.9861906  45.8252423
  51.3577559  33.4632395  46.1062013  50.9316512  23.7562983  46.9987900
  50.1939269  23.2440369  47.3298143  51.1843286  23.3163364  46.1871177
  51.0328140  16.5339235  47.5929670  51.3387016  15.6736598  47.3055585
  51.7580744  17.1256855  47.3928664  45.3049219  26.8293028  48.1005861
  45.3597829  25.8766864  48.0248337  44.4940421  26.9852467  48.5847159
  43.2441579  25.4470087  45.8596240  42.4309445  25.7464258  46.2661432
  43.7400573  25.0525776  46.5770722  48.8415791  25.9111912  54.6911134
  49.1965179  26.1383385  55.5505599  49.4887922  26.2430289  54.0688389
  54.5713528  29.0330348  45.3960463  54.4331426  29.2231944  44.4681652
  54.2149747  29.7949731  45.8528514  42.7355654  23.0188443  51.4757475
  43.3755033  22.8777202  50.7780438  41.9033185  22.7322956  51.0996077
  54.5982907  31.1006875  50.4071734  55.0319414  31.0082164  51.2554788
  55.3114488  31.0764375  49.7691750  48.3310802  34.7008969  51.9404835
  48.3847825  35.2699905  52.7082551  47.4625584  34.8710854  51.5758872
  39.7384270  22.9888768  46.2530461  39.9991088  23.9034101  46.1439622
  40.5601443  22.5213211  46.4027074  41.2109196  24.4026525  53.4229286
  41.8832249  24.1943887  52.7741935  40.3838982  24.2048611  52.9834518
  55.4598457  31.1430575  52.9404619  55.6534347  32.0476386  53.1863894
  55.3599075  30.6837995  53.7743205  47.1134768  21.0288466  55.4394947
  46.4662683  21.7278416  55.3459423  47.8835783  21.4624610  55.8071195
  50.5213566  31.2937318  58.5145500  50.3699072  31.0647870  57.5975584
  50.5118245  32.2507920  58.5276845  47.2898902  28.8669231  53.4991767
  48.2190962  29.0180391  53.3260734  46.8689932  28.9553252  52.6440413
  46.0887234  32.8919895  51.2690304  45.9498320  32.5238680  52.1416242
  45.3001830  33.4067535  51.0974262  47.6392449  32.2701498  48.6579142
  47.3042282  32.2302268  49.5536792  47.1396395  31.6046214  48.1849552
  41.6136693  27.6769128  54.1831723  41.4756491  26.9449367  54.7843262
  42.5241616  27.5878028  53.9015911  50.5751641  29.6157532  38.9316202
  49.9580811  28.8904361  38.8349254  50.1068129  30.3766893  38.5883276
  44.2418994  27.3889087  53.6715403  44.9518612  26.7482280  53.6302021
  44.1988302  27.6401982  54.5941584  52.2305772  34.3256441  56.5921982
  52.1718318  33.6415661  55.9252565  52.6325291  35.0675431  56.1402608
  42.9547928  24.3754305  55.4911042  42.4185285  23.9245044  56.1432639
  42.3664636  24.5100214  54.7481507  41.2496471  41.1418355  49.3855701
  41.4893069  41.7736879  50.0634719  40.4065668  40.7906395  49.6721060
  52.2323180  32.2896025  54.8235962  51.3449958  31.9521947  54.9462360
  52.8021731  31.5579056  55.0604727  33.8852327  28.6220116  48.1479013
  34.5723367  28.3081846  47.5600028  33.7300455  29.5261481  47.8746264
  38.6887049  23.5110313  52.5764037  38.6045238  22.9035983  51.8414447
  37.8669755  24.0019331  52.5773533  48.8610763  21.9963877  47.9434232
  49.3579462  21.2433839  47.6235302  48.0897744  22.0328193  47.3777441
  56.7140520  27.7004242  49.5852523  56.7030396  28.5828958  49.2146456
  55.8457900  27.3475793  49.3907060  48.2223017  36.8484311  53.9455363
  48.9350989  37.4831776  53.8731265  47.7313045  36.9448177  53.1295365
  49.9440543  30.7535564  45.5172655  49.0096822  30.8737026  45.3477359
  50.1217212  29.8508031  45.2532665  45.4445731  24.1381260  47.6705916
  45.0743519  23.5852300  48.3586822  45.9404824  23.5339393  47.1180916
  53.3313095  26.5952883  46.0522689  53.7973547  27.4280875  45.9782992
  53.7820595  26.1297865  46.7567948  43.2734930  34.5978755  54.7660934
  43.9744390  35.2315238  54.9190329  42.8030045  34.9393486  54.0056574
  51.3989326  32.9396704  43.0508841  51.6749170  32.8253299  43.9602715
  50.5293825  32.5414189  43.0121014  51.3029758  18.9633470  50.0913591
  50.3892837  19.1937697  50.2595798  51.7322859  19.0471914  50.9427623
  51.0736216  27.1523362  52.5913485  50.4207666  27.3999269  51.9365937
  51.4516596  26.3387500  52.2575962  47.1223789  27.8943173  59.0779522
  46.4464426  27.7937302  59.7481897  47.9451423  27.7382387  59.5415519
  38.8702648  34.1315110  51.6992037  39.4556085  33.3858798  51.8319941
  38.6727487  34.4419066  52.5828701  33.4620303  26.7020710  50.4196480
  33.5004402  26.1684301  51.2133598  32.9560596  26.1755915  49.8007457
  40.8411065  21.5485250  53.9159022  40.9052392  22.4100081  53.5036420
  40.7778185  20.9359252  53.1831381  40.3163338  23.6208383  57.5632057
  40.9435376  23.2385460  58.1769581  39.4591257  23.4022585  57.9287749
  50.7157446  34.0271358  59.1685792  51.2597350  34.6401316  58.6740747
  50.1344291  34.5850936  59.6852805  40.6223127  23.5040809  49.4777960
  39.9009713  24.1176776  49.3385433  41.4116383  24.0398573  49.3994606
  43.4249441  20.8395235  55.7518612  43.9483843  21.0857532  56.5144921
  43.2061774  21.6715270  55.3321749  41.9358545  23.3971879  43.9865214
  42.2754618  23.9257801  43.2643823  42.3830666  23.7352286  44.7623781
  44.6301986  21.7808930  53.4368282  44.2898806  20.9816743  53.8388962
  43.9240992  22.0810641  52.8645116  45.2818458  18.8658243  51.8895605
  46.1044527  18.3918721  51.7674496  45.5256521  19.6448726  52.3894292
  43.9226692  21.8946501  42.1858507  44.6435055  22.2727754  41.6822224
  43.2991996  22.6135378  42.2893485  48.0657815  22.5991650  43.1216839
  48.2821430  23.4816288  42.8205668  47.5851882  22.2077863  42.3922481
  42.8057037  25.5577363  49.6987584  42.6601617  25.8717666  50.5911866
  42.3282240  26.1762264  49.1458483  44.6653419  22.5479911  49.7468474
  44.6514988  21.6521005  49.4100772  45.3825848  22.5550575  50.3806760
  46.5179550  22.9817251  51.7921601  46.2597328  23.9034322  51.7905931
  45.9864591  22.5847686  52.4822065  37.2802699  28.0982708  52.6375245
  36.7356167  28.8742516  52.7695520  38.1582049  28.4453512  52.4794367
  44.0690315  21.4294291  45.0156044  44.1906227  20.5010938  45.2146931
  43.7792358  21.4432977  44.1034359  46.9381506  19.1149202  48.1522764
  46.9603203  19.1788535  47.1974743  47.3549565  18.2753711  48.3463270
  57.3165130  28.8504461  46.1901986  57.7596276  28.1011787  45.7921109
  56.4391640  28.8414598  45.8075718  38.0668721  27.2252604  55.5305402
  37.3250457  27.3735239  56.1170033  37.7461465  27.4860869  54.6672152
  54.3492335  32.8534508  43.1995915  54.8743659  33.1921781  42.4745235
  54.2614687  31.9181524  43.0159050  46.0112383  36.7668582  55.3285792
  46.3199510  36.5217729  56.2008492  46.8087865  36.9715221  54.8404662
  43.4806867  34.4644501  49.6313470  42.8586877  33.8015206  49.3315698
  44.1511734  34.4905633  48.9487118  36.7133939  33.0304359  48.5204730
  35.8765848  32.6026533  48.3388732  36.6857585  33.2236802  49.4575522
  43.5531395  22.9426289  59.2245976  43.6019550  23.8188412  58.8423746
  44.0953909  22.4003682  58.6517620  54.0386241  33.4867412  58.5047113
  53.2481784  33.4691551  57.9651613  53.8019595  34.0255706  59.2596150
  54.1584116  30.3359878  55.8179842  54.2082121  30.1709886  56.7595365
  54.0498039  29.4687137  55.4277723  51.4487878  26.3190806  57.1339149
  52.3497741  26.1797271  56.8423146  51.5235853  26.4845261  58.0737326
  45.7830683  23.6957661  55.9792335  44.9133993  23.9891227  55.7074924
  46.0190164  24.2798106  56.6999599  55.6602312  32.7556820  56.0621864
  55.3687121  33.1186801  56.8985324  55.0474444  32.0423828  55.8835196
  56.8597995  30.3209700  48.5824434  57.6944886  30.7599504  48.7461994
  56.9957124  29.8448353  47.7632680  53.9089501  27.8789435  54.5301921
  54.3843622  28.0717081  53.7220773  52.9855066  27.9348620  54.2845305
  48.4869717  19.9137278  53.4957755  49.0051661  20.6498305  53.1704244
  48.1324850  20.2201271  54.3304515  48.7382311  16.3337561  49.0158652
  49.0184065  15.6660750  49.6419079  49.5232918  16.5266656  48.5033316
  52.6091170  24.7555195  52.7630227  53.5608593  24.8553292  52.7842451
  52.4394620  23.9633463  53.2728311  50.6305549  21.8410778  52.9489628
  50.0355481  22.1215791  52.2536117  50.3455246  22.3304679  53.7206369
  52.3901056  35.1099575  38.6696208  52.3114688  34.7759439  39.5631966
  53.2110723  35.6021343  38.6687680  55.0879248  27.9761314  51.8772527
  55.0555568  27.0377315  52.0632211  55.6979871  28.0545351  51.1438352
  55.2373736  24.7672358  51.9230810  54.7212785  23.9830814  51.7360739
  56.1213685  24.4391074  52.0877329  52.8984463  18.5113373  47.8826623
  52.7009284  18.2028462  48.7669955  53.5084168  19.2375012  48.0124552
  60.9055797  29.0377321  51.0178564  61.6359186  28.7762609  51.5786267
  60.2962743  28.3006043  51.0580632  58.9871094  27.1785184  51.6153015
  58.2604258  27.0441149  51.0069506  58.5718381  27.4862012  52.4209733
  46.8101271  30.8975113  59.3800388  47.7304280  31.0753713  59.5740434
  46.7750854  29.9531159  59.2280087  36.0283436  26.0913707  48.3053662
  35.7086220  25.2379015  48.0128036  35.4816864  26.3062285  49.0611630
  39.8063343  28.8076148  52.0223169  40.0249353  29.7393256  52.0411203
  40.2189117  28.4484123  52.8077973  46.7267561  19.3144233  44.0098857
  45.9168290  18.9691318  44.3854103  47.4151978  19.0051777  44.5986469
  48.6558110  18.3922280  45.6323154  49.2089148  18.8117734  46.2913177
  48.8928196  17.4658028  45.6746110  44.6791209  24.3809354  61.4125918
  44.5787936  25.3303711  61.3438009  44.4612751  24.0527593  60.5401988
  35.8971696  29.7116619  50.2746784  35.2035167  29.2970571  49.7616738
  36.6444687  29.7537155  49.6780203  52.0336917  20.5022805  45.1401818
  51.4535586  21.1607609  44.7579871  51.7672849  19.6800150  44.7289236
  50.4840483  19.9027863  47.3423139  50.9840261  20.0144398  46.5337457
  51.1276091  19.5988916  47.9823947  44.5422479  27.8106493  60.2290980
  44.0589561  28.6106853  60.4354869  44.6283418  27.8214438  59.2758423
  37.8108438  29.6434872  48.1512799  37.7879127  29.7422560  47.1994682
  38.1209075  30.4900023  48.4729965  40.4695816  31.7011027  52.2659413
  41.4239070  31.6694970  52.1989345  40.2708340  31.2401651  53.0809639
  41.0595198  30.2712144  54.8330211  41.8788087  30.7656222  54.8565048
  41.3332006  29.3544112  54.8047778  50.8161795  22.6622896  44.1958166
  49.9287650  22.9472546  43.9778361  51.2315784  22.5016659  43.3485443
  54.1676331  22.6869417  47.9112506  54.9436721  23.1765869  48.1837123
  53.4424465  23.1127471  48.3684375  56.6048889  23.3997036  48.9686446
  57.1993380  23.1592772  48.2579755  56.6775473  22.6804167  49.5959983
  49.9605008  32.4267570  38.2906186  50.6640858  32.6317573  38.9063842
  49.2367657  32.9944332  38.5555270  50.7902818  28.1777432  44.4108457
  50.7338020  28.6345983  43.5716089  51.3431161  27.4168116  44.2331299
  54.6007624  23.9667164  45.2358576  54.3444559  23.5663799  46.0666784
  53.9760492  24.6810958  45.1108715  58.9119962  26.7063237  47.7429868
  58.3519520  26.7756426  48.5161430  58.3063466  26.5304221  47.0229364
  41.9815171  38.1399964  49.4948054  41.8647555  39.0845396  49.3926744
  41.1607617  37.8373526  49.8833853  51.8691706  32.8650100  40.3404647
  52.7037309  32.4331298  40.1582121  51.7076048  32.6932113  41.2681541
  51.5237598  29.3682213  41.7060986  51.4686401  29.2026484  40.7649430
  50.8983653  30.0758246  41.8623176  36.3130113  24.6050277  55.5322408
  36.9588976  24.0949231  56.0209633  36.1047264  25.3418959  56.1065833
  48.8383505  31.6731125  61.0314549  49.7074665  31.8471777  60.6701184
  48.3590256  32.4925542  60.9090278  44.8333723  18.8690322  41.2846304
  44.8212393  19.8132162  41.4414575  45.7257145  18.6860467  40.9905765
  48.6485843  15.4633099  45.5392241  47.8818238  14.9091585  45.6848923
  49.0596548  15.5354967  46.4006393  40.6527604  21.7517894  59.6297422
  41.5159065  21.3954699  59.8400747  40.0793014  21.4131789  60.3172827
  60.4975981  43.3819751  50.4359823  61.1354391  43.2626498  49.7323163
  60.3796823  44.3300595  50.4947775  57.3065687  43.3347179  50.3721348
  56.9684198  43.2188244  49.4841883  58.1755455  42.9338344  50.3522354
  57.7885470  44.4882031  56.3307553  57.7774111  44.0934829  55.4588057
  57.9506109  43.7548103  56.9241325  50.7116935  46.6833847  49.2002459
  51.5038226  46.3424672  48.7848759  50.9513585  46.7928822  50.1204613
  58.7452061  48.8553623  41.6732704  58.0940041  49.4407703  41.2866718
  59.5396424  49.3859818  41.7327741  52.6707688  45.9442760  42.0719838
  53.4438564  45.3971747  41.9332714  53.0233087  46.8087009  42.2834300
  54.5092731  47.2719142  55.2786737  54.2182597  48.1764773  55.1633404
  55.1449715  47.3135670  55.9930807  55.4348938  44.6495991  51.8688097
  56.0312510  44.4252013  51.1545060  55.4923909  43.9080736  52.4713545
  60.0517249  41.1071205  47.5113031  60.8380338  40.6890628  47.1603448
  60.3155953  42.0117297  47.6794680  60.2227326  46.5444055  42.2101688
  59.5873159  46.6178681  42.9222593  59.8924733  47.1337654  41.5320767
  65.4525676  41.0446438  48.4146010  66.1850848  40.4745655  48.6483839
  64.6965032  40.6568038  48.8552515  54.7270255  44.0063532  41.9062663
  54.6106513  43.3308436  42.5743747  54.8372515  43.5195906  41.0894816
  57.0701796  43.4673679  45.6109352  56.7060003  42.9404300  46.3222274
  57.9268912  43.0772148  45.4375838  62.9751097  34.7568012  52.8740618
  62.6434421  35.6263423  52.6501833  62.3796710  34.4404296  53.5534649
  56.7107283  38.4963579  40.6070701  56.8781685  39.3643815  40.9741172
  56.5204452  38.6590861  39.6831990  59.4682616  46.9580558  52.2736531
  59.1683339  47.8605597  52.1652338  59.1233676  46.6912741  53.1257684
  52.9195098  43.4094355  48.3073236  51.9945594  43.2770569  48.5150927
  53.1679511  44.1888574  48.8043178  62.8679760  39.4763098  49.9533968
  61.9596637  39.4078507  49.6592729  62.8167356  39.9535043  50.7815794
  56.6896504  40.9521237  41.5917368  56.5696129  41.3978287  42.4302848
  55.9949092  41.3006554  41.0330906  54.4503396  53.7224878  45.2407499
  54.3727426  54.6732703  45.3195979  53.8465039  53.3770751  45.8982425
  56.9420626  40.8952744  57.8968866  56.1653960  41.4546664  57.8871730
  57.5811189  41.3809527  58.4183736  64.7341406  37.6779537  51.7311842
  64.0915787  37.9712070  51.0851637  64.2296335  37.5632457  52.5365039
  62.3881570  41.4242710  42.4197702  63.2999426  41.6570096  42.2445399
  61.8791217  42.0079754  41.8572780  55.1966998  43.7038197  57.4586833
  55.9381682  44.2423241  57.1821656  54.4903983  44.3304486  57.6158385
  60.6722338  45.8467338  56.0558994  61.0805694  45.4049748  55.3113627
  59.9499599  45.2719965  56.3093187  57.0253408  40.7839944  53.4292551
  57.8714603  41.2079358  53.5727200  56.9652045  40.1273569  54.1231114
  60.9951152  46.4068528  49.8111283  60.3660015  46.5714242  49.1087351
  60.6076814  46.8210138  50.5822247  64.8740384  47.3422966  47.1655647
  64.1891422  47.7221867  46.6152680  64.9584233  47.9518293  47.8987595
  60.1752853  38.4444313  55.0873725  59.9313785  39.1986373  54.5508001
  60.4512784  38.8229660  55.9220972  62.1291316  44.9882925  53.7650990
  62.3408211  45.6314685  53.0885371  62.0821064  44.1545242  53.2972920
  59.7317545  37.6000746  50.6687563  58.8702024  37.8981999  50.9604300
  59.7579979  37.8171145  49.7368595  56.5479114  46.1442936  47.0761368
  57.0117460  46.4230639  46.2865991  56.2835912  45.2426381  46.8934459
  53.4403195  45.6914418  50.0141131  54.0104552  46.1201686  49.3758616
  54.0311307  45.4097002  50.7125317  55.4848000  42.2666089  43.8850933
  56.1872044  42.7187132  44.3524860  55.1528629  41.6249907  44.5130826
  53.9328362  40.8577845  58.2602143  53.3027022  41.5394126  58.4937540
  53.8264450  40.7460927  57.3155281  63.2437144  47.8654880  51.9373348
  64.0654587  47.4635068  51.6556029  63.2399547  47.7623115  52.8889464
  57.0093747  47.4138924  54.0934058  57.0738180  47.8759331  54.9292230
  56.3004671  46.7836289  54.2216368  56.7241765  49.0807031  43.9613039
  56.5887440  49.9258567  44.3897886  57.2651577  49.2826309  43.1978972
  53.2109104  35.1598611  60.6227394  52.8176050  34.6064810  61.2975038
  54.0275245  35.4709190  61.0133911  51.9866047  49.7148226  46.6163717
  52.1632675  50.6366190  46.4284701  52.7822880  49.4006645  47.0458097
  56.1277065  36.5756490  58.2147650  56.8686779  37.1763643  58.1352113
  56.3594988  35.8334128  57.6565693  51.2718403  41.7612857  56.4925880
  51.1571919  40.8598115  56.7932979  50.4162921  42.0076554  56.1410697
  58.3510241  49.7030598  58.0913381  57.9074095  48.9166976  57.7734285
  59.0127455  49.8909748  57.4257271  53.1097362  51.2326399  52.6174059
  53.6604787  51.1043463  51.8451053  52.2708838  51.5321288  52.2668952
  60.4491479  49.9833398  56.1194782  60.4309955  50.8042279  55.6275051
  61.3711399  49.8587473  56.3444923  56.9064533  47.4977527  56.9618290
  57.4392870  46.7365815  56.7317598  56.3778615  47.2051179  57.7042445
  60.0734228  32.6037593  52.4911932  59.7298498  33.4939235  52.4151043
  60.4413191  32.4139251  51.6281517  60.0384511  42.5946204  40.9984367
  59.5231135  43.3650809  41.2372755  59.7661820  41.9211340  41.6217429
  57.6231622  37.4395905  46.0569606  56.7673218  37.0502755  45.8775244
  58.0358574  37.5187866  45.1969391  59.1530769  34.9742248  50.4561165
  58.6495564  34.9372383  49.6428971  59.4461376  35.8834991  50.5157822
  55.3973655  35.0580978  49.4627347  56.2626651  34.8623787  49.1033236
  55.4651164  34.8291330  50.3896704  65.0118785  45.3478559  42.9337541
  64.2348228  45.0089718  42.4892703  65.6910266  45.3531182  42.2592506
  59.8270814  40.4673296  42.8244148  59.5220950  40.7819446  43.6754292
  60.7801256  40.5454716  42.8671481  58.2717246  46.6263520  44.4737102
  57.7438608  45.8916279  44.1610340  57.7704749  47.4038196  44.2277071
  63.2510092  44.8212540  49.5904149  62.5933767  45.5111802  49.6784277
  64.0550491  45.2108972  49.9338135  62.0615551  43.1756913  47.6408090
  62.5747433  43.8086905  48.1429800  62.7116775  42.5758108  47.2751450
  55.3058641  34.1624435  45.5618783  54.6523054  33.8473452  44.9375398
  55.2639116  33.5400175  46.2878606  56.4169846  44.4443730  37.4772075
  55.5096908  44.2132983  37.6763224  56.9140878  43.6481349  37.6646057
  59.3237925  53.1541237  40.3968762  58.6499624  53.4572934  41.0053719
  59.7103747  53.9570317  40.0474219  58.5396382  40.6506368  49.8866431
  57.6218943  40.8721315  49.7288119  58.9556525  40.7252679  49.0278138
  59.3231430  42.0497784  45.0169111  60.0703249  42.5619181  44.7076233
  59.5923019  41.7281837  45.8773505  57.5958080  44.5456325  41.9996065
  56.6869299  44.2615358  42.0968535  57.6253164  44.9655403  41.1399372
  62.8277347  48.1562914  45.7687233  62.3739674  47.3153824  45.8252423
  62.1971314  48.7924313  46.1062013  61.7710267  39.0854900  46.9987900
  61.0333024  38.5732287  47.3298143  62.0237040  38.6455282  46.1871177
  61.2710286  49.9939411  46.7037051  61.5633261  50.5544468  45.9849417
  61.7808907  50.2867972  47.4590210  61.8721894  31.8631152  47.5929670
  62.1780771  31.0028516  47.3055585  62.5974499  32.4548773  47.3928664
  56.1442974  42.1584945  48.1005861  56.1991584  41.2058782  48.0248337
  55.3334176  42.3144384  48.5847159  57.2934168  46.0865068  39.3384144
  56.8553597  45.3700927  38.8789781  58.0344608  46.3141183  38.7769235
  56.2343912  50.7719762  47.7930504  56.1920090  50.9980608  46.8639036
  57.1506610  50.5383137  47.9416305  59.6809545  41.2403830  54.6911134
  60.0358933  41.4675303  55.5505599  60.3281677  41.5722206  54.0688389
  65.4107282  44.3622265  45.3960463  65.2725181  44.5523861  44.4681652
  65.0543501  45.1241648  45.8528514  65.4376662  46.4298792  50.4071734
  65.8713169  46.3374082  51.2554788  66.1508243  46.4056293  49.7691750
  54.3509712  47.6482791  47.5892467  55.1450311  47.1533111  47.3875042
  53.6401405  47.1200654  47.2260173  59.1704557  50.0300887  51.9404835
  59.2241579  50.5991823  52.7082551  58.3019338  50.2002772  51.5758872
  52.0502950  39.7318443  53.4229286  52.7226004  39.5235805  52.7741935
  51.2232737  39.5340529  52.9834518  66.2992212  46.4722493  52.9404619
  66.4928102  47.3768304  53.1863894  66.1992830  46.0129912  53.7743205
  57.9528522  36.3580384  55.4394947  57.3056437  37.0570333  55.3459423
  58.7229538  36.7916528  55.8071195  61.3607320  46.6229236  58.5145500
  61.2092827  46.3939788  57.5975584  61.3512000  47.5799837  58.5276845
  58.1292657  44.1961149  53.4991767  59.0584717  44.3472308  53.3260734
  57.7083687  44.2845169  52.6440413  56.9280988  48.2211813  51.2690304
  56.7892074  47.8530597  52.1416242  56.1395585  48.7359452  51.0974262
  57.5229140  53.3220910  42.6115841  57.6980896  52.8508953  43.4261463
  56.8361928  53.9486676  42.8397101  58.4786204  47.5993416  48.6579142
  58.1436036  47.5594186  49.5536792  57.9790149  46.9338132  48.1849552
  52.4530447  43.0061046  54.1831723  52.3150245  42.2741285  54.7843262
  53.3635371  42.9169946  53.9015911  61.4145395  44.9449450  38.9316202
  60.7974566  44.2196278  38.8349254  60.9461884  45.7058810  38.5883276
  55.0812748  42.7181005  53.6715403  55.7912367  42.0774197  53.6302021
  55.0382056  42.9693900  54.5941584  63.0699527  49.6548358  56.5921982
  63.0112073  48.9707579  55.9252565  63.4719045  50.3967348  56.1402608
  53.7941682  39.7046223  55.4911042  53.2579039  39.2536961  56.1432639
  53.2058391  39.8392132  54.7481507  52.0890226  56.4710272  49.3855701
  52.3286824  57.1028796  50.0634719  51.2459422  56.1198312  49.6721060
  63.0716934  47.6187942  54.8235962  62.1843713  47.2813864  54.9462360
  63.6415485  46.8870974  55.0604727  49.5280803  38.8402231  52.5764037
  49.4438992  38.2327900  51.8414447  48.7063510  39.3311249  52.5773533
  56.6018087  52.2789395  51.7897205  56.5288259  53.0844366  52.3016509
  56.1595481  52.4781361  50.9645226  56.3907867  51.5161165  45.3000026
  55.6075389  52.0582845  45.3938251  57.0900612  52.0335144  45.6994268
  59.7004517  37.3255794  47.9434232  60.1973217  36.5725757  47.6235302
  58.9291499  37.3620111  47.3777441  67.5534275  43.0296160  49.5852523
  67.5424151  43.9120875  49.2146456  66.6851654  42.6767711  49.3907060
  59.0616771  52.1776229  53.9455363  59.7744743  52.8123694  53.8731265
  58.5706800  52.2740095  53.1295365  60.7834298  46.0827481  45.5172655
  59.8490577  46.2028944  45.3477359  60.9610966  45.1799948  45.2532665
  56.2839486  39.4673177  47.6705916  55.9137273  38.9144218  48.3586822
  56.7798578  38.8631311  47.1180916  64.1706849  41.9244801  46.0522689
  64.6367301  42.7572792  45.9782992  64.6214350  41.4589782  46.7567948
  54.1128685  49.9270672  54.7660934  54.8138144  50.5607155  54.9190329
  53.6423800  50.2685404  54.0056574  62.2383080  48.2688622  43.0508841
  62.5142924  48.1545217  43.9602715  61.3687579  47.8706107  43.0121014
  62.1423512  34.2925388  50.0913591  61.2286592  34.5229615  50.2595798
  62.5716613  34.3763832  50.9427623  61.9129971  42.4815280  52.5913485
  61.2601421  42.7291187  51.9365937  62.2910350  41.6679418  52.2575962
  58.8737144  52.5174973  46.6941655  59.0559539  51.6996629  47.1569407
  59.6970130  52.7342665  46.2566545  59.2079310  51.4443158  43.9556703
  59.7367076  50.9335613  43.3426866  59.4707529  51.1285688  44.8202236
  57.9617544  43.2235091  59.0779522  57.2858181  43.1229220  59.7481897
  58.7845177  43.0674304  59.5415519  49.7096403  49.4607027  51.6992037
  50.2949839  48.7150715  51.8319941  49.5121241  49.7710984  52.5828701
  52.5635058  52.4958275  46.7154479  51.8945433  52.9804402  46.2318519
  52.4247928  52.7427495  47.6297858  56.7040326  54.5302018  53.3137138
  57.2558634  54.6933640  54.0786223  57.0446520  55.1206456  52.6417163
  51.6804820  36.8777168  53.9159022  51.7446146  37.7391999  53.5036420
  51.6171940  36.2651170  53.1831381  51.1557092  38.9500301  57.5632057
  51.7829131  38.5677378  58.1769581  50.2985011  38.7314502  57.9287749
  61.5551201  49.3563276  59.1685792  62.0991105  49.9693234  58.6740747
  60.9738046  49.9142854  59.6852805  59.8408714  52.4783994  50.3000820
  59.7159853  51.6773734  49.7911765  60.4987805  52.9730187  49.8114790
  61.9043622  50.2793014  51.9280370  60.9573958  50.1598365  51.8558697
  62.2526395  49.3915512  52.0106631  54.2643195  36.1687153  55.7518612
  54.7877597  36.4149449  56.5144921  54.0455529  37.0007188  55.3321749
  58.9090055  50.0745730  48.1284722  58.7615018  49.1462437  48.3092292
  59.7343549  50.0965821  47.6441797  62.5124177  50.8974289  49.2149595
  63.4370725  50.6917150  49.0774046  62.3439481  50.6490690  50.1238936
  55.4695740  37.1100848  53.4368282  55.1292561  36.3108661  53.8388962
  54.7634747  37.4102559  52.8645116  56.1212212  34.1950160  51.8895605
  56.9438282  33.7210638  51.7674496  56.3650276  34.9740644  52.3894292
  58.9051570  37.9283568  43.1216839  59.1215184  38.8108206  42.8205668
  58.4245637  37.5369781  42.3922481  55.5047174  37.8771829  49.7468474
  55.4908743  36.9812922  49.4100772  56.2219602  37.8842493  50.3806760
  57.3573305  38.3109169  51.7921601  57.0991082  39.2326240  51.7905931
  56.8258345  37.9139604  52.4822065  62.3019493  51.4159956  44.5711686
  62.4756371  50.8506379  43.8185539  62.7948385  52.2160851  44.3891176
  48.1196453  43.4274625  52.6375245  47.5749921  44.2034433  52.7695520
  48.9975803  43.7745430  52.4794367  54.9084070  36.7586209  45.0156044
  55.0299981  35.8302855  45.2146931  54.6186112  36.7724895  44.1034359
  57.7775260  34.4441120  48.1522764  57.7996957  34.5080453  47.1974743
  58.1943319  33.6045628  48.3463270  68.1558885  44.1796379  46.1901986
  68.5990031  43.4303704  45.7921109  67.2785395  44.1706516  45.8075718
  63.2894666  50.7326721  41.6708585  63.9845571  51.3533413  41.8895899
  63.6317816  49.8822072  41.9460963  48.9062475  42.5544522  55.5305402
  48.1644211  42.7027157  56.1170033  48.5855219  42.8152787  54.6672152
  65.1886089  48.1826426  43.1995915  65.7137413  48.5213699  42.4745235
  65.1008442  47.2473441  43.0159050  56.8506138  52.0960500  55.3285792
  57.1593264  51.8509647  56.2008492  57.6481620  52.3007138  54.8404662
  56.8726750  54.2498409  47.5591169  56.4331740  53.7574788  48.2524025
  57.6234867  53.7071377  47.3183244  49.3519089  50.4409950  47.5615797
  50.1777109  50.1413722  47.1814440  49.0013141  49.6717573  48.0105585
  54.3200622  49.7936419  49.6313470  53.6980631  49.1307124  49.3315698
  54.9905489  49.8197550  48.9487118  47.5527694  48.3596277  48.5204730
  46.7159602  47.9318451  48.3388732  47.5251339  48.5528720  49.4575522
  54.3925149  38.2718207  59.2245976  54.4413305  39.1480329  58.8423746
  54.9347664  37.7295600  58.6517620  64.8779995  48.8159330  58.5047113
  64.0875539  48.7983469  57.9651613  64.6413350  49.3547623  59.2596150
  64.9977870  45.6651796  55.8179842  65.0475875  45.5001804  56.7595365
  64.8891793  44.7979055  55.4277723  53.8814129  48.3440342  43.1071931
  54.0302249  49.0275806  42.4538604  54.6880572  48.3245432  43.6221387
  62.2881633  41.6482724  57.1339149  63.1891495  41.5089189  56.8423146
  62.3629607  41.8137179  58.0737326  56.6224438  39.0249579  55.9792335
  55.7527747  39.3183145  55.7074924  56.8583918  39.6090024  56.6999599
  66.4996067  48.0848738  56.0621864  66.2080875  48.4478718  56.8985324
  65.8868198  47.3715746  55.8835196  67.6991749  45.6501617  48.5824434
  68.5338641  46.0891422  48.7461994  67.8350878  45.1740271  47.7632680
  64.7483255  43.2081352  54.5301921  65.2237377  43.4008999  53.7220773
  63.8248821  43.2640538  54.2845305  59.3263472  35.2429196  53.4957755
  59.8445416  35.9790223  53.1704244  58.9718604  35.5493189  54.3304515
  59.5776066  31.6629478  49.0158652  59.8577820  30.9952667  49.6419079
  60.3626673  31.8558574  48.5033316  57.3809534  50.8388472  40.5783678
  56.8083501  51.4578659  40.1254150  57.9542328  51.3887834  41.1123600
  63.4484924  40.0847112  52.7630227  64.4002347  40.1845210  52.7842451
  63.2788375  39.2925381  53.2728311  61.4699304  37.1702696  52.9489628
  60.8749236  37.4507708  52.2536117  61.1849000  37.6596597  53.7206369
  60.6006794  51.1225622  41.7092261  61.5337467  51.0571184  41.9125136
  60.5130007  51.9581889  41.2506793  63.2294811  50.4391493  38.6696208
  63.1508442  50.1051356  39.5631966  64.0504478  50.9313261  38.6687680
  65.9273002  43.3053232  51.8772527  65.8949322  42.3669233  52.0632211
  66.5373626  43.3837269  51.1438352  57.7656333  42.1749285  37.9199731
  58.7115438  42.0455493  37.9888149  57.3870578  41.4363947  38.3969159
  66.0767490  40.0964275  51.9230810  65.5606539  39.3122732  51.7360739
  66.9607439  39.7682992  52.0877329  63.7378217  33.8405291  47.8826623
  63.5403039  33.5320379  48.7669955  64.3477923  34.5666930  48.0124552
  69.8264849  42.5077101  51.6153015  69.0998013  42.3733066  51.0069506
  69.4112136  42.8153930  52.4209733  57.6495025  46.2267031  59.3800388
  58.5698035  46.4045630  59.5740434  57.6144608  45.2823077  59.2280087
  55.9499250  40.0999261  37.8554616  55.0430705  39.8032374  37.9317330
  56.2275231  39.8029080  36.9888902  50.6457098  44.1368066  52.0223169
  50.8643108  45.0685174  52.0411203  51.0582872  43.7776040  52.8077973
  57.5661316  34.6436151  44.0098857  56.7562044  34.2983236  44.3854103
  58.2545733  34.3343695  44.5986469  59.4951864  33.7214198  45.6323154
  60.0482903  34.1409651  46.2913177  59.7321950  32.7949946  45.6746110
  55.5184963  39.7101272  61.4125918  55.4181690  40.6595629  61.3438009
  55.3006505  39.3819510  60.5401988  54.7198035  36.9586197  37.9966595
  55.5817199  37.2841095  38.2562413  54.9048379  36.1717693  37.4839661
  62.8730671  35.8314723  45.1401818  62.2929340  36.4899527  44.7579871
  62.6066604  35.0092068  44.7289236  61.3234237  35.2319781  47.3423139
  61.8234016  35.3436315  46.5337457  61.9669845  34.9280834  47.9823947
  55.3816233  43.1398410  60.2290980  54.8983315  43.9398771  60.4354869
  55.4677172  43.1506355  59.2758423  51.3089571  47.0302945  52.2659413
  52.2632824  46.9986887  52.1989345  51.1102094  46.5693569  53.0809639
  51.8988953  45.6004061  54.8330211  52.7181842  46.0948140  54.8565048
  52.1725761  44.6836029  54.8047778  61.6555549  37.9914813  44.1958166
  60.7681404  38.2764464  43.9778361  62.0709538  37.8308577  43.3485443
  65.0070085  38.0161334  47.9112506  65.7830475  38.5057787  48.1837123
  64.2818219  38.4419389  48.3684375  67.4442644  38.7288954  48.9686446
  68.0387135  38.4884690  48.2579755  67.5169228  38.0096084  49.5959983
  49.6639800  52.5722565  49.2829611  49.5294268  51.8122966  48.7167609
  49.2471862  53.2963464  48.8158400  60.7998763  47.7559488  38.2906186
  61.5034613  47.9609491  38.9063842  60.0761411  48.3236250  38.5555270
  61.6296573  43.5069349  44.4108457  61.5731774  43.9637901  43.5716089
  62.1824915  42.7460034  44.2331299  65.4401379  39.2959081  45.2358576
  65.1838313  38.8955717  46.0666784  64.8154247  40.0102875  45.1108715
  69.7513717  42.0355155  47.7429868  69.1913275  42.1048344  48.5161430
  69.1457220  41.8596139  47.0229364  52.8208925  53.4691882  49.4948054
  52.7041310  54.4137314  49.3926744  52.0001372  53.1665443  49.8833853
  62.7085460  48.1942017  40.3404647  63.5431064  47.7623216  40.1582121
  62.5469803  48.0224031  41.2681541  62.3631352  44.6974131  41.7060986
  62.3080156  44.5318402  40.7649430  61.7377407  45.4050164  41.8623176
  47.1523867  39.9342195  55.5322408  47.7982731  39.4241149  56.0209633
  46.9441018  40.6710877  56.1065833  59.6777259  47.0023043  61.0314549
  60.5468419  47.1763695  60.6701184  59.1984011  47.8217459  60.9090278
  55.6727478  34.1982240  41.2846304  55.6606147  35.1424080  41.4414575
  56.5650900  34.0152385  40.9905765  53.8463440  54.1220144  52.7103982
  54.7490686  54.1543754  53.0270477  53.6200810  53.1920594  52.7250318
  55.6017042  52.8751130  49.3714061  54.6512673  52.8752992  49.2578433
  55.9049528  52.1283865  48.8550095  59.4879597  30.7925016  45.5392241
  58.7211993  30.2383503  45.6848923  59.8990302  30.8646885  46.4006393
  51.4921358  37.0809812  59.6297422  52.3552820  36.7246617  59.8400747
  50.9186769  36.7423707  60.3172827  68.1459441  58.6639097  50.3721348
  67.8077953  58.5480161  49.4841883  69.0149210  58.2630262  50.3522354
  64.0046257  60.5174573  46.3618239  63.4411122  60.4264510  45.5934527
  63.8898652  59.6974477  46.8420731  61.5510689  62.0125765  49.2002459
  62.3431981  61.6716589  48.7848759  61.7907339  62.1220740  50.1204613
  63.5101443  61.2734678  42.0719838  64.2832319  60.7263665  41.9332714
  63.8626842  62.1378927  42.2834300  66.2742692  59.9787909  51.8688097
  66.8706265  59.7543931  51.1545060  66.3317664  59.2372654  52.4713545
  65.8467721  57.4327344  39.7038288  66.0993241  56.9108865  38.9421751
  64.9092280  57.2693489  39.8064972  65.5664010  59.3355450  41.9062663
  65.4500268  58.6600353  42.5743747  65.6766269  58.8487824  41.0894816
  67.9095550  58.7965597  45.6109352  67.5453758  58.2696218  46.3222274
  68.7662666  58.4064066  45.4375838  67.5501037  53.8255497  40.6070701
  67.7175440  54.6935733  40.9741172  67.3598206  53.9882778  39.6831990
  63.7588852  58.7386272  48.3073236  62.8339349  58.6062487  48.5150927
  64.0073265  59.5180492  48.8043178  67.5290258  56.2813154  41.5917368
  67.4089883  56.7270205  42.4302848  66.8342847  56.6298472  41.0330906
  61.1197663  58.3819546  49.1417025  61.2490044  58.6354025  50.0556436
  60.4395114  58.9747254  48.8221680  67.8647162  56.1131862  53.4292551
  68.7108357  56.5371276  53.5727200  67.8045800  55.4565486  54.1231114
  70.5711299  52.9292663  50.6687563  69.7095778  53.2273917  50.9604300
  70.5973734  53.1463062  49.7368595  67.3872869  61.4734854  47.0761368
  67.8511214  61.7522557  46.2865991  67.1229667  60.5718299  46.8934459
  64.2796950  61.0206335  50.0141131  64.8498307  61.4493604  49.3758616
  64.8705062  60.7388920  50.7125317  66.3241755  57.5958006  43.8850933
  67.0265798  58.0479050  44.3524860  65.9922383  56.9541825  44.5130826
  60.0667089  55.8541559  49.1868067  59.2766143  56.1099088  48.7108178
  60.5578336  56.6689897  49.2920107  62.0181834  56.2186138  46.1451544
  61.2212997  56.3304832  46.6635039  61.7907426  56.5572790  45.2792434
  58.3504792  56.1072049  51.6183058  58.6012830  56.9919059  51.8840634
  58.8864340  55.9276651  50.8458150  61.0164917  61.9274387  44.5340964
  61.5289437  62.7217637  44.6846528  61.6687630  61.2300677  44.4674565
  62.8259801  65.0440143  46.6163717  63.0026430  65.9658108  46.4284701
  63.6216635  64.7298562  47.0458097  70.9127983  47.9329511  52.4911932
  70.5692252  48.8231152  52.4151043  71.2806945  47.7431168  51.6281517
  58.9813833  60.2563041  45.3100534  59.8189055  60.6660050  45.0934242
  59.1592101  59.3162483  45.2800728  70.8778266  57.9238122  40.9984367
  70.3624889  58.6942727  41.2372755  70.6055574  57.2503258  41.6217429
  68.4625377  52.7687823  46.0569606  67.6066973  52.3794673  45.8775244
  68.8752328  52.8479783  45.1969391  69.9924523  50.3034166  50.4561165
  69.4889319  50.2664301  49.6428971  70.2855130  51.2126909  50.5157822
  66.2367409  50.3872896  49.4627347  67.1020406  50.1915704  49.1033236
  66.3044918  50.1583247  50.3896704  69.1111001  61.9555437  44.4737102
  68.5832362  61.2208197  44.1610340  68.6098503  62.7330114  44.2277071
  63.8429728  52.6175104  46.8343714  64.4173480  52.3950285  46.1016907
  64.4300711  52.6863798  47.5872315  64.1699315  54.6479565  40.8539599
  63.3336628  54.9854251  41.1748874  64.0304085  54.5128544  39.9166736
  66.1452396  49.4916353  45.5618783  65.4916808  49.1765370  44.9375398
  66.1032870  48.8692093  46.2878606  67.2563601  59.7735648  37.4772075
  66.3490663  59.5424901  37.6763224  67.7534633  58.9773267  37.6646057
  69.3790136  55.9798286  49.8866431  68.4612698  56.2013233  49.7288119
  69.7950280  56.0544597  49.0278138  70.1625184  57.3789702  45.0169111
  70.9097003  57.8911099  44.7076233  70.4316774  57.0573754  45.8773505
  68.4351834  59.8748242  41.9996065  67.5263053  59.5907275  42.0968535
  68.4646918  60.2947321  41.1399372  59.0040005  57.5953757  45.9811268
  58.8064404  57.0023117  45.2562334  58.4486669  57.2905967  46.6987206
  66.9836728  57.4876863  48.1005861  67.0385338  56.5350699  48.0248337
  66.1727930  57.6436302  48.5847159  68.1327922  61.4156986  39.3384144
  67.6947352  60.6992845  38.8789781  68.8738363  61.6433101  38.7769235
  64.9229088  56.1053923  45.8596240  64.1096954  56.4048093  46.2661432
  65.4188082  55.7109612  46.5770722  64.4143163  53.6772278  51.4757475
  65.0542542  53.5361037  50.7780438  63.5820693  53.3906792  51.0996077
  65.1903467  62.9774709  47.5892467  65.9844065  62.4825029  47.3875042
  64.4795159  62.4492572  47.2260173  61.4986230  57.1217790  43.6652220
  60.5683818  57.0602246  43.8822182  61.5943702  56.5993743  42.8688861
  61.4171779  53.6472603  46.2530461  61.6778597  54.5617937  46.1439622
  62.2388952  53.1797046  46.4027074  62.8896705  55.0610360  53.4229286
  63.5619758  54.8527723  52.7741935  62.0626491  54.8632446  52.9834518
  68.7922277  51.6872301  55.4394947  68.1450192  52.3862251  55.3459423
  69.5623292  52.1208445  55.8071195  63.2924202  58.3352963  54.1831723
  63.1544000  57.6033202  54.7843262  64.2029125  58.2461864  53.9015911
  64.6335437  55.0338141  55.4911042  64.0972794  54.5828879  56.1432639
  64.0452145  55.1684050  54.7481507  64.0437696  54.4926792  38.0537506
  63.1667162  54.3715593  37.6899753  64.5195449  53.7012870  37.8016395
  55.5639836  59.2803952  48.1479013  56.2510876  58.9665682  47.5600028
  55.4087964  60.1845316  47.8746264  60.3674558  54.1694148  52.5764037
  60.2832747  53.5619818  51.8414447  59.5457264  54.6603167  52.5773533
  70.5398272  52.6547712  47.9434232  71.0366971  51.9017674  47.6235302
  69.7685253  52.6912029  47.3777441  67.1233240  54.7965095  47.6705916
  66.7531028  54.2436135  48.3586822  67.6192333  54.1923228  47.1180916
  55.1407812  57.3604545  50.4196480  55.1791911  56.8268136  51.2133598
  54.6348105  56.8339751  49.8007457  62.5198574  52.2069086  53.9159022
  62.5839901  53.0683917  53.5036420  62.4565694  51.5943087  53.1831381
  58.7716389  56.0868647  43.4950412  59.0669830  55.1779326  43.4417465
  57.8704425  56.0656387  43.1731414  62.3010636  54.1624644  49.4777960
  61.5797222  54.7760612  49.3385433  63.0903892  54.6982409  49.3994606
  65.1036950  51.4979070  55.7518612  65.6271352  51.7441367  56.5144921
  64.8849283  52.3299105  55.3321749  60.5004231  53.7682745  43.6189737
  60.1716937  52.8880124  43.4364843  60.8543602  53.7130414  44.5066126
  63.6146054  54.0555715  43.9865214  63.9542127  54.5841636  43.2643823
  64.0618175  54.3936121  44.7623781  66.3089495  52.4392766  53.4368282
  65.9686315  51.6400579  53.8388962  65.6028501  52.7394476  52.8645116
  66.9605967  49.5242078  51.8895605  67.7832036  49.0502556  51.7674496
  67.2044030  50.3032562  52.3894292  65.6014201  52.5530336  42.1858507
  66.3222564  52.9311589  41.6822224  64.9779505  53.2719213  42.2893485
  69.7445324  53.2575485  43.1216839  69.9608939  54.1400123  42.8205668
  69.2639391  52.8661699  42.3922481  64.4844546  56.2161199  49.6987584
  64.3389126  56.5301502  50.5911866  64.0069749  56.8346099  49.1458483
  66.3440928  53.2063747  49.7468474  66.3302497  52.3104840  49.4100772
  67.0613357  53.2134410  50.3806760  68.1967059  53.6401087  51.7921601
  67.9384837  54.5618157  51.7905931  67.6652100  53.2431521  52.4822065
  58.9590208  58.7566543  52.6375245  58.4143676  59.5326351  52.7695520
  59.8369558  59.1037347  52.4794367  65.7477824  52.0878127  45.0156044
  65.8693736  51.1594773  45.2146931  65.4579867  52.1016813  44.1034359
  68.6169015  49.7733037  48.1522764  68.6390712  49.8372370  47.1974743
  69.0337074  48.9337546  48.3463270  59.7456230  57.8836439  55.5305402
  59.0037966  58.0319075  56.1170033  59.4248974  58.1444705  54.6672152
  60.1912843  65.7701868  47.5615797  61.0170863  65.4705640  47.1814440
  59.8406895  65.0009490  48.0105585  58.3921448  63.6888194  48.5204730
  57.5553357  63.2610369  48.3388732  58.3645094  63.8820638  49.4575522
  64.7207883  63.6732260  43.1071931  64.8696004  64.3567724  42.4538604
  65.5274327  63.6537350  43.6221387  62.4760516  59.6997437  44.1133000
  62.2306558  58.7959767  44.3113210  62.6456431  59.7014588  43.1712478
  70.1657226  50.5721114  53.4957755  70.6839170  51.3082140  53.1704244
  69.8112359  50.8785107  54.3304515  61.7456164  55.4325795  41.6119161
  61.0525409  55.5070150  40.9559197  61.5007916  54.6686138  42.1340678
  70.4169820  46.9921396  49.0158652  70.6971574  46.3244585  49.6419079
  71.2020427  47.1850492  48.5033316  68.6050087  57.5041203  37.9199731
  69.5509192  57.3747411  37.9888149  68.2264332  56.7655865  38.3969159
  66.7893005  55.4291179  37.8554616  65.8824460  55.1324292  37.9317330
  67.0668986  55.1320997  36.9888902  57.7070945  56.7497543  48.3053662
  57.3873729  55.8962851  48.0128036  57.1604373  56.9646121  49.0611630
  61.4850852  59.4659984  52.0223169  61.7036862  60.3977091  52.0411203
  61.8976626  59.1067958  52.8077973  68.4055070  49.9728069  44.0098857
  67.5955799  49.6275154  44.3854103  69.0939487  49.6635613  44.5986469
  70.3345619  49.0506116  45.6323154  70.8876657  49.4701569  46.2913177
  70.5715705  48.1241864  45.6746110  65.5591789  52.2878114  37.9966595
  66.4210953  52.6133013  38.2562413  65.7442133  51.5009610  37.4839661
  57.5759205  60.3700454  50.2746784  56.8822676  59.9554407  49.7616738
  58.3232196  60.4120991  49.6780203  59.4895947  60.3018708  48.1512799
  59.4666636  60.4006395  47.1994682  59.7996584  61.1483859  48.4729965
  62.1483325  62.3594863  52.2659413  63.1026579  62.3278805  52.1989345
  61.9495849  61.8985487  53.0809639  60.5033554  67.9014482  49.2829611
  60.3688022  67.1414883  48.7167609  60.0865616  68.6255382  48.8158400
  57.9917622  55.2634113  55.5322408  58.6376485  54.7533067  56.0209633
  57.7834773  56.0002794  56.1065833  66.5121232  49.5274157  41.2846304
  66.4999902  50.4715997  41.4414575  67.4044654  49.3444303  40.9905765
  70.3273352  46.1216934  45.5392241  69.5605747  45.5675421  45.6848923
  70.7384057  46.1938803  46.4006393  32.7715888   0.0703166  31.9652805
  32.6939918   1.0210991  32.0441286  32.1677532  -0.2750962  32.6227732
  31.4309855  -2.4195313  39.3419366  31.9817280  -2.5478250  38.5696360
  30.5921331  -2.1200424  38.9914259  37.6450417  -0.4980476  27.1214068
  36.9712116  -0.1948779  27.7299026  38.0316239   0.3048605  26.7719525
  35.8441633  -0.3300803  29.3361147  36.0193388  -0.8012760  30.1506770
  35.1574421   0.2964963  29.5642408  30.4102718   2.8188560  36.1101007
  30.6499316   3.4507084  36.7880026  29.5671914   2.4676600  36.3966367
  34.9230580  -1.3732318  38.5142511  34.8500751  -0.5677347  39.0261816
  34.4807973  -1.1740352  37.6890533  34.7120359  -2.1360548  32.0245333
  33.9287881  -1.5938868  32.1183558  35.4113105  -1.6186568  32.4239574
  30.8847550  -1.1563438  33.4399786  30.2157925  -0.6717310  32.9563826
  30.7460420  -0.9094218  34.3543165  35.0252819   0.8780305  40.0382444
  35.5771127   1.0411927  40.8031530  35.3659012   1.4684743  39.3662469
  35.1718630  -1.5561213  42.0531099  35.4805756  -1.8012066  42.9253798
  35.9694112  -1.3514575  41.5649969  35.1939242   0.5976697  34.2836475
  34.7544232   0.1053075  34.9769332  35.9447359   0.0549664  34.0428551
  27.6731581  -3.2111762  34.2861103  28.4989601  -3.5107991  33.9059747
  27.3225633  -3.9804140  34.7350892  27.9852292  -1.0799148  36.0074918
  27.8506760  -1.8398747  35.4412916  27.5684354  -0.3558248  35.5403707
  31.1421418  -0.1829831  36.2193360  31.0253802   0.7615601  36.1172051
  30.3213864  -0.4856270  36.6079160  32.1675932   0.4698431  39.4349289
  33.0703179   0.5022041  39.7515784  31.9413302  -0.4601118  39.4495625
  33.9229534  -0.7770583  36.0959368  32.9725165  -0.7768721  35.9823740
  34.2262020  -1.5237848  35.5795402  49.6582227   5.0589956  37.1605130
  50.2960637   4.9396703  36.4568470  49.5403070   6.0070800  37.2193082
  46.4671934   5.0117384  37.0966655  46.1290445   4.8958449  36.2087189
  47.3361702   4.6108549  37.0767661  42.3258749   6.8652860  33.0863546
  41.7623614   6.7742797  32.3179833  42.2111144   6.0452765  33.5666038
  46.9491717   6.1652236  43.0552860  46.9380357   5.7705034  42.1833364
  47.1112356   5.4318308  43.6486632  39.8723181   8.3604052  35.9247766
  40.6644473   8.0194876  35.5094065  40.1119831   8.4699027  36.8449919
  47.9058308  10.5323828  28.3978010  47.2546288  11.1177908  28.0112024
  48.7002671  11.0630023  28.4573048  41.8313935   7.6212965  28.7965145
  42.6044811   7.0741952  28.6578021  42.1839334   8.4857214  29.0079606
  43.6698978   8.9489347  42.0032044  43.3788844   9.8534978  41.8878710
  44.3055962   8.9905875  42.7176114  44.5955185   6.3266196  38.5933404
  45.1918757   6.1022218  37.8790367  44.6530156   5.5850941  39.1958852
  44.1680213   3.7805631  26.4283595  44.4205734   3.2587152  25.6667058
  43.2304772   3.6171777  26.5310278  49.3833573   8.2214260  28.9346995
  48.7479406   8.2948886  29.6467899  49.0530980   8.8107859  28.2566074
  43.8876502   5.6833737  28.6307970  43.7712760   5.0078641  29.2989054
  43.9978762   5.1966111  27.8140123  46.2308043   5.1443884  32.3354659
  45.8666250   4.6174505  33.0467580  47.0875159   4.7542353  32.1621144
  48.6288863   8.6350763  38.9981838  48.3289586   9.5375802  38.8897645
  48.2839922   8.3682946  39.8502991  42.0801344   5.0864560  35.0318542
  41.1551841   4.9540774  35.2396234  42.3285758   5.8658779  35.5288485
  45.8502751   2.6291441  28.3162674  45.7302376   3.0748492  29.1548155
  45.1555339   2.9776759  27.7576212  39.4410155   4.7297833  35.8662331
  39.5702537   4.9832312  36.7801743  38.7607607   5.3225541  35.5466986
  46.1026872   2.5722949  44.6214172  45.3260207   3.1316869  44.6117037
  46.7417435   3.0579732  45.1429042  44.3573245   5.3808402  44.1832139
  45.0987929   5.9193446  43.9066963  43.6510230   6.0074691  44.3403691
  49.8328584   7.5237542  42.7804301  50.2411940   7.0819953  42.0358933
  49.1105846   6.9490170  43.0338494  50.1557399   8.0838733  36.5356590
  49.5266261   8.2484447  35.8332658  49.7683061   8.4980343  37.3067554
  54.0346631   9.0193171  33.8900954  53.3497669   9.3992072  33.3397987
  54.1190480   9.6288498  34.6232901  51.2897563   6.6653130  40.4896297
  51.5014458   7.3084890  39.8130678  51.2427311   5.8315447  40.0218227
  45.7085361   7.8213141  33.8006675  46.1723706   8.1000844  33.0111297
  45.4442159   6.9196586  33.6179766  42.6009442   7.3684623  36.7386438
  43.1710799   7.7971891  36.1003923  43.1917554   7.0867207  37.4370624
  44.6454247   3.9436294  30.6096240  45.3478290   4.3957337  31.0770166
  44.3134875   3.3020112  31.2376133  43.0934608   2.5348050  44.9847449
  42.4633269   3.2164331  45.2182846  42.9870696   2.4231132  44.0400588
  38.3879581   2.2019846  35.9113374  37.5978635   2.4577375  35.4353484
  38.8790828   3.0168184  36.0165414  52.4043390   9.5425085  38.6618654
  53.2260834   9.1405273  38.3801336  52.4005793   9.4393320  39.6134770
  40.3394326   2.5664425  32.8696850  39.5425490   2.6783120  33.3880346
  40.1119919   2.9051078  32.0037741  46.1699994   9.0909129  40.8179365
  46.2344426   9.5529536  41.6537537  45.4610918   8.4606494  40.9461675
  36.6717284   2.4550337  38.3428364  36.9225322   3.3397347  38.6085940
  37.2076832   2.2754938  37.5703456  45.8848012  10.7577236  30.6858345
  45.7493686  11.6028772  31.1143193  46.4257824  10.9596514  29.9224279
  39.3377409   8.2752674  31.2586270  39.8501930   9.0695924  31.4091835
  39.9900122   7.5778965  31.1919872  41.1472294  11.3918430  33.3409023
  41.3238922  12.3136395  33.1530007  41.9429127  11.0776850  33.7703403
  40.4324650   3.4383062  43.2171187  40.3178165   2.5368320  43.5178286
  39.5769168   3.6846759  42.8656003  47.5116488  11.3800803  44.8158687
  47.0680342  10.5937181  44.4979592  48.1733702  11.5679953  44.1502578
  42.2703609  12.9096604  39.3419366  42.8211034  12.7813668  38.5696360
  41.4315085  13.2091493  38.9914259  49.6097726  11.6603603  42.8440089
  49.5916201  12.4812484  42.3520358  50.5317646  11.5357678  43.0690230
  46.0670780   9.1747732  43.6863597  46.5999117   8.4136020  43.4562905
  45.5384861   8.8821384  44.4287751  37.3026326   6.6041329  32.0345841
  38.1401548   7.0138337  31.8179549  37.4804593   5.6640771  32.0046035
  49.1990758   4.2716409  27.7229674  48.6837381   5.0421014  27.9618061
  48.9268066   3.5981545  28.3462735  54.1725032   7.0248764  29.6582847
  53.3954475   6.6859923  29.2138009  54.8516513   7.0301387  28.9837812
  47.4323493   8.3033725  31.1982409  46.9044854   7.5686484  30.8855646
  46.9310996   9.0808401  30.9522377  52.4116339   6.4982745  36.3149455
  51.7540013   7.1882006  36.4029584  53.2156738   6.8879177  36.6583442
  51.2221798   4.8527118  34.3653397  51.7353679   5.4857110  34.8675107
  51.8723022   4.2528313  33.9996757  42.4911808   0.9957852  27.5784906
  41.6549120   1.3332538  27.8994180  42.3516577   0.8606832  26.6412043
  45.5776093   6.1213935  24.2017382  44.6703155   5.8903188  24.4008531
  46.0747125   5.3251554  24.3891364  48.4844172  14.8311442  27.1214068
  47.8105871  15.1343139  27.7299026  48.8709994  15.6340522  26.7719525
  48.4837676   3.7267989  31.7414418  49.2309495   4.2389386  31.4321540
  48.7529266   3.4052042  32.6018811  46.7564327   6.2226530  28.7241372
  45.8475546   5.9385563  28.8213842  46.7859410   6.6425608  27.8644679
  51.9883594   9.8333119  32.4932540  51.5345921   8.9924029  32.5497730
  51.3577561  10.4694518  32.8307320  50.4316533  11.6709616  33.4282358
  50.7239508  12.2314673  32.7094723  50.9415154  11.9638177  34.1835517
  37.3252497   3.9432044  32.7056574  37.1276897   3.3501405  31.9807641
  36.7699161   3.6384254  33.4232513  45.3049221   3.8355150  34.8251167
  45.3597830   2.8828987  34.7493644  44.4940423   3.9914589  35.3092466
  46.4540414   7.7635273  26.0629451  46.0159844   7.0471132  25.6035088
  47.1950855   7.9911388  25.5014542  43.2441580   2.4532210  32.5841546
  42.4309446   2.7526381  32.9906738  43.7400575   2.0587899  33.3016029
  45.3950158  12.4489967  34.5175811  45.3526337  12.6750813  33.5884343
  46.3112857  12.2153342  34.6661612  48.8415792   2.9174035  41.4156440
  49.1965180   3.1445508  42.2750906  49.4887923   3.2492411  40.7933695
  54.5713529   6.0392470  32.1205769  54.4331428   6.2294066  31.1926958
  54.2149748   6.8011853  32.5773820  54.5982909   8.1068997  37.1317041
  55.0319415   8.0144287  37.9800095  55.3114489   8.0826498  36.4937057
  43.5115959   9.3252996  34.3137774  44.3056558   8.8303316  34.1120349
  42.8007652   8.7970859  33.9505479  48.3310804  11.7071092  38.6650141
  48.3847826  12.2762028  39.4327857  47.4625585  11.8772977  38.3004178
  39.8198723   3.4696078  30.3897526  38.8896311   3.4080533  30.6067489
  39.9156195   2.9472030  29.5934168  41.2109197   1.4088648  40.1474593
  41.8832250   1.2006010  39.4987241  40.3838984   1.2110734  39.7079825
  55.4598458   8.1492698  39.6649926  55.6534348   9.0538509  39.9109201
  55.3599076   7.6900117  40.4988511  50.5213567   8.2999441  45.2390807
  50.3699073   8.0709993  44.3220890  50.5118246   9.2570042  45.2522152
  47.2898903   5.8731354  40.2237073  48.2190963   6.0242513  40.0506040
  46.8689933   5.9615374  39.3685720  46.0887235   9.8982018  37.9935611
  45.9498321   9.5300802  38.8661549  45.3001831  10.4129657  37.8219569
  46.6835387  14.9991114  29.3361147  46.8587143  14.5279158  30.1506770
  45.9968175  15.6256881  29.5642408  47.6392450   9.2763621  35.3824449
  47.3042283   9.2364391  36.2782098  47.1396396   8.6108337  34.9094859
  41.6136694   4.6831251  40.9077030  41.4756492   3.9511490  41.5088569
  42.5241618   4.5940151  40.6261217  50.5751642   6.6219655  25.6561508
  49.9580813   5.8966483  25.5594561  50.1068130   7.3829015  25.3128582
  44.2418995   4.3951210  40.3960709  44.9518613   3.7544402  40.3547328
  44.1988303   4.6464105  41.3186890  52.2305774  11.3318563  43.3167289
  52.1718320  10.6477784  42.6497872  52.6325292  12.0737553  42.8647915
  42.9547929   1.3816428  42.2156349  42.4185286   0.9307166  42.8677945
  42.3664637   1.5162337  41.4726813  41.2496472  18.1480477  36.1101007
  41.4893071  18.7799001  36.7880026  40.4065669  17.7968517  36.3966367
  52.2323181   9.2958147  41.5481268  51.3449960   8.9584069  41.6707667
  52.8021732   8.5641179  41.7850034  33.8852328   5.6282239  34.8724320
  34.5723368   5.3143969  34.2845335  33.7300457   6.5323604  34.5991571
  38.6887050   0.5172436  39.3009343  38.6045239  -0.0901895  38.5659753
  37.8669757   1.0081454  39.3018840  45.7624334  13.9559600  38.5142511
  45.6894506  14.7614571  39.0261816  45.3201727  14.1551565  37.6890533
  45.5514114  13.1931370  32.0245333  44.7681636  13.7353050  32.1183558
  46.2506859  13.7105349  32.4239574  48.2223018  13.8546434  40.6700670
  48.9350990  14.4893899  40.5976572  47.7313046  13.9510300  39.8540672
  49.9440545   7.7597686  32.2417962  49.0096823   7.8799149  32.0722666
  50.1217213   6.8570153  31.9777972  43.2734931  11.6040877  41.4906241
  43.9744391  12.2377360  41.6435635  42.8030046  11.9455609  40.7301880
  51.3989327   9.9458827  29.7754148  51.6749171   9.8315422  30.6848022
  50.5293826   9.5476312  29.7366321  48.0343391  14.1945178  33.4186962
  48.2165786  13.3766834  33.8814714  48.8576377  14.4112870  32.9811852
  48.3685557  13.1213363  30.6802010  48.8973323  12.6105817  30.0672172
  48.6313776  12.8055893  31.5447543  47.1223790   4.9005296  45.8024828
  46.4464427   4.7999425  46.4727204  47.9451424   4.7444509  46.2660826
  38.8702649  11.1377232  38.4237344  39.4556086  10.3920920  38.5565248
  38.6727488  11.4481189  39.3074008  41.7241305  14.1728480  33.4399786
  41.0551680  14.6574607  32.9563826  41.5854174  14.4197700  34.3543165
  33.4620304   3.7082832  37.1441787  33.5004404   3.1746423  37.9378905
  32.9560597   3.1818038  36.5252764  45.8646573  16.2072223  40.0382444
  46.4164881  16.3703845  40.8031530  46.2052767  16.7976661  39.3662469
  40.3163339   0.6270505  44.2877363  40.9435378   0.2447583  44.9014888
  39.4591258   0.4084707  44.6533056  50.7157447  11.0333481  45.8931099
  51.2597351  11.6463439  45.3986054  50.1344292  11.5913059  46.4098112
  37.0928882   2.4346935  30.2195718  37.3882323   1.5257613  30.1662772
  36.1916917   2.4134674  29.8976721  49.0014960  14.1554199  37.0246127
  48.8766100  13.3543938  36.5157072  49.6594052  14.6500392  36.5360097
  40.6223129   0.5102931  36.2023267  39.9009714   1.1238899  36.0630740
  41.4116384   1.0460696  36.1239913  51.0649869  11.9563219  38.6525677
  50.1180204  11.8368570  38.5804003  51.4132642  11.0685717  38.7351938
  38.8216723   0.1161032  30.3435043  38.4929429  -0.7641589  30.1610149
  39.1756094   0.0608701  31.2311433  48.0696302  11.7515935  34.8530029
  47.9221265  10.8232642  35.0337599  48.8949796  11.7736026  34.3687104
  51.6730424  12.5744494  35.9394902  52.5976971  12.3687355  35.8019353
  51.5045727  12.3260895  36.8484243  42.8057038   2.5639486  36.4232891
  42.6601619   2.8779789  37.3157172  42.3282241   3.1824386  35.8703789
  51.4625740  13.0930161  31.2956993  51.6362618  12.5276584  30.5430846
  51.9554631  13.8931056  31.1136483  37.2802700   5.1044830  39.3620552
  36.7356168   5.8804638  39.4940826  38.1582050   5.4515635  39.2039673
  52.4500913  12.4096926  28.3953891  53.1451817  13.0303618  28.6141206
  52.7924063  11.5592277  28.6706269  38.0668722   4.2314726  42.2550709
  37.3250458   4.3797362  42.8415339  37.7461466   4.4922992  41.3917458
  54.3492336   9.8596631  29.9241222  54.8743660  10.1983904  29.1990542
  54.2614688   8.9243646  29.7404357  46.0112384  13.7730705  42.0531099
  46.3199511  13.5279851  42.9253798  46.8087867  13.9777343  41.5649969
  46.0332997  15.9268614  34.2836475  45.5937987  15.4344993  34.9769332
  46.7841113  15.3841582  34.0428551  38.5125336  12.1180155  34.2861103
  39.3383355  11.8183927  33.9059747  38.1619388  11.3487778  34.7350892
  43.4806869  11.4706623  36.3558777  42.8586878  10.8077328  36.0561005
  44.1511736  11.4967755  35.6732425  36.7133941  10.0366482  35.2450037
  35.8765849   9.6088656  35.0634038  36.6857586  10.2298925  36.1820828
  54.0386242  10.4929535  45.2292420  53.2481786  10.4753674  44.6896919
  53.8019596  11.0317828  45.9841457  54.1584117   7.3422001  42.5425149
  54.2082122   7.1772009  43.4840671  54.0498040   6.4749260  42.1523029
  43.0420376  10.0210547  29.8317238  43.1908496  10.7046011  29.1783910
  43.8486819  10.0015637  30.3466693  55.6602314   9.7618943  42.7867170
  55.3687122  10.1248923  43.6230631  55.0474445   9.0485951  42.6080502
  56.8597996   7.3271822  35.3069740  57.6944887   7.7661626  35.4707301
  56.9957125   6.8510476  34.4877986  53.9089502   4.8851557  41.2547228
  54.3843624   5.0779204  40.4466080  52.9855067   4.9410743  41.0090612
  40.7973009   6.0475724  30.8378306  40.5519051   5.1438054  31.0358517
  40.9668923   6.0492875  29.8957784  40.0668656   1.7804082  28.3364468
  39.3737901   1.8548437  27.6804504  39.8220408   1.0164426  28.8585985
  46.5415781  12.5158677  27.3028985  45.9689748  13.1348864  26.8499457
  47.1148575  13.0658039  27.8368907  49.7613041  12.7995827  28.4337567
  50.6943714  12.7341389  28.6370443  49.6736254  13.6352094  27.9752100
  52.3901058  12.1161698  25.3941515  52.3114689  11.7821561  26.2877273
  53.2110724  12.6083466  25.3932987  46.9262580   3.8519490  24.6445037
  47.8721684   3.7225698  24.7133455  46.5476825   3.1134152  25.1214466
  46.8101272   7.9037236  46.1045694  47.7304282   8.0815835  46.2985741
  46.7750855   6.9593281  45.9525394  36.0283437   3.0975830  35.0298969
  35.7086222   2.2441138  34.7373343  35.4816865   3.3124408  35.7856936
  39.8063345   5.8138271  38.7468476  40.0249354   6.7455379  38.7656509
  40.2189119   5.4546245  39.5323279  35.8971697   6.7178741  36.9992091
  35.2035169   6.3032694  36.4862045  36.6444688   6.7599278  36.4025510
  44.5422480   4.8168615  46.9536286  44.0589562   5.6168975  47.1600175
  44.6283419   4.8276560  46.0003730  37.8108440   6.6496995  34.8758106
  37.7879128   6.7484682  33.9239989  38.1209076   7.4962146  35.1975272
  40.4695818   8.7073150  38.9904720  41.4239071   8.6757092  38.9234652
  40.2708341   8.2463774  39.8054946  41.0595200   7.2774266  41.5575518
  41.8788089   7.7718345  41.5810355  41.3332007   6.3606234  41.5293085
  38.8246046  14.2492770  36.0074918  38.6900514  13.4893170  35.4412916
  38.4078109  14.9733669  35.5403707  49.9605009   9.4329693  25.0151493
  50.6640859   9.6379696  25.6309149  49.2367658  10.0006455  25.2800577
  50.7902820   5.1839554  31.1353763  50.7338021   5.6408106  30.2961396
  51.3431162   4.4230239  30.9576606  41.9815172  15.1462087  36.2193360
  41.8647556  16.0907519  36.1172051  41.1607618  14.8435648  36.6079160
  51.8691707   9.8712222  27.0649953  52.7037311   9.4393421  26.8827428
  51.7076050   9.6994236  27.9926848  51.5237599   6.3744336  28.4306292
  51.4686403   6.2088607  27.4894737  50.8983654   7.0820369  28.5868482
  36.3130114   1.6112400  42.2567715  36.9588978   1.1011354  42.7454940
  36.1047265   2.3481082  42.8311140  48.8383506   8.6793247  47.7559855
  49.7074666   8.8533900  47.3946490  48.3590258   9.4987664  47.6335585
  43.0069686  15.7990348  39.4349289  43.9096933  15.8313959  39.7515784
  42.7807056  14.8690799  39.4495625  44.7623288  14.5521335  36.0959368
  43.8118919  14.5523197  35.9823740  45.0655775  13.8054070  35.5795402
  60.4975982  20.3881873  37.1605130  61.1354392  20.2688621  36.4568470
  60.3796825  21.3362717  37.2193082  57.3065688  20.3409302  37.0966655
  56.9684200  20.2250366  36.2087189  58.1755456  19.9400467  37.0767661
  53.1652504  22.1944778  33.0863546  52.6017369  22.1034715  32.3179833
  53.0504899  21.3744682  33.5666038  57.7885471  21.4944153  43.0552860
  57.7774112  21.0996951  42.1833364  57.9506111  20.7610226  43.6486632
  50.7116936  23.6895970  35.9247766  51.5038228  23.3486794  35.5094065
  50.9513586  23.7990945  36.8449919  58.7452063  25.8615746  28.3978010
  58.0940042  26.4469826  28.0112024  59.5396425  26.3921941  28.4573048
  52.6707690  22.9504883  28.7965145  53.4438566  22.4033870  28.6578021
  53.0233089  23.8149132  29.0079606  54.5092732  24.2781265  42.0032044
  54.2182598  25.1826896  41.8878710  55.1449717  24.3197793  42.7176114
  55.4348939  21.6558114  38.5933404  56.0312511  21.4314136  37.8790367
  55.4923911  20.9142859  39.1958852  55.0073968  19.1097549  26.4283595
  55.2599488  18.5879070  25.6667058  54.0698527  18.9463694  26.5310278
  60.0517250  18.1133327  34.2358338  60.8380340  17.6952750  33.8848755
  60.3155955  19.0179419  34.4039986  60.2227328  23.5506178  28.9346995
  59.5873161  23.6240804  29.6467899  59.8924734  24.1399776  28.2566074
  65.4525677  18.0508560  35.1391316  66.1850849  17.4807777  35.3729146
  64.6965033  17.6630161  35.5797822  54.7270256  21.0125655  28.6307970
  54.6106514  20.3370558  29.2989054  54.8372516  20.5258029  27.8140123
  57.0701797  20.4735802  32.3354659  56.7060004  19.9466423  33.0467580
  57.9268913  20.0834271  32.1621144  62.9751098  11.7630135  39.5985925
  62.6434423  12.6325546  39.3747140  62.3796711  11.4466419  40.2779955
  56.7107284  15.5025702  27.3316007  56.8781687  16.3705938  27.6986478
  56.5204453  15.6652983  26.4077297  59.4682617  23.9642681  38.9981838
  59.1683340  24.8667719  38.8897645  59.1233677  23.6974864  39.8502991
  52.9195099  20.4156477  35.0318542  51.9945595  20.2832691  35.2396234
  53.1679512  21.1950697  35.5288485  62.8679761  16.4825221  36.6779275
  61.9596638  16.4140629  36.3838036  62.8167357  16.9597166  37.5061101
  56.6896505  17.9583359  28.3162674  56.5696130  18.4040410  29.1548155
  55.9949093  18.3068677  27.7576212  50.2803910  20.0589751  35.8662331
  50.4096291  20.3124230  36.7801743  49.6001361  20.6517459  35.5466986
  54.4503397  30.7287001  31.9652805  54.3727427  31.6794826  32.0441286
  53.8465041  30.3832873  32.6227732  56.9420627  17.9014866  44.6214172
  56.1653961  18.4608786  44.6117037  57.5811190  18.3871649  45.1429042
  64.7341408  14.6841659  38.4557149  64.0915788  14.9774192  37.8096944
  64.2296336  14.5694579  39.2610346  62.3881571  18.4304832  29.1443008
  63.2999427  18.6632219  28.9690706  61.8791218  19.0141877  28.5818087
  55.1966999  20.7100320  44.1832139  55.9381684  21.2485364  43.9066963
  54.4903985  21.3366608  44.3403691  60.6722339  22.8529460  42.7804301
  61.0805695  22.4111871  42.0358933  59.9499600  22.2782088  43.0338494
  57.0253409  17.7902067  40.1537858  57.8714604  18.2141480  40.2972507
  56.9652047  17.1335691  40.8476421  60.9951154  23.4130651  36.5356590
  60.3660016  23.5776365  35.8332658  60.6076816  23.8272260  37.3067554
  64.8740385  24.3485089  33.8900954  64.1891424  24.7283990  33.3397987
  64.9584235  24.9580415  34.6232901  60.1752854  15.4506435  41.8119031
  59.9313786  16.2048496  41.2753307  60.4512785  15.8291783  42.6466279
  62.1291317  21.9945048  40.4896297  62.3408212  22.6376808  39.8130678
  62.0821065  21.1607364  40.0218227  59.7317546  14.6062868  37.3932869
  58.8702025  14.9044122  37.6849607  59.7579981  14.8233267  36.4613902
  56.5479115  23.1505059  33.8006675  57.0117461  23.4292762  33.0111297
  56.2835914  22.2488503  33.6179766  53.4403196  22.6976540  36.7386438
  54.0104554  23.1263809  36.1003923  54.0311308  22.4159125  37.4370624
  55.4848001  19.2728211  30.6096240  56.1872045  19.7249255  31.0770166
  55.1528630  18.6312030  31.2376133  53.9328363  17.8639968  44.9847449
  53.3027024  18.5456249  45.2182846  53.8264451  17.7523049  44.0400588
  49.2273335  17.5311764  35.9113374  48.4372389  17.7869292  35.4353484
  49.7184583  18.3460102  36.0165414  63.2437145  24.8717003  38.6618654
  64.0654589  24.4697190  38.3801336  63.2399548  24.7685237  39.6134770
  51.1788081  17.8956343  32.8696850  50.3819244  18.0075037  33.3880346
  50.9513673  18.2342995  32.0037741  57.0093748  24.4201046  40.8179365
  57.0738181  24.8821454  41.6537537  56.3004672  23.7898411  40.9461675
  47.5111038  17.7842254  38.3428364  47.7619077  18.6689264  38.6085940
  48.0470587  17.6046856  37.5703456  56.7241766  26.0869154  30.6858345
  56.5887441  26.9320690  31.1143193  57.2651579  26.2888431  29.9224279
  53.2109106  12.1660734  47.3472700  52.8176051  11.6126932  48.0220345
  54.0275246  12.4771312  47.7379218  50.1771163  23.6044592  31.2586270
  50.6895684  24.3987842  31.4091835  50.8293876  22.9070882  31.1919872
  51.9866048  26.7210348  33.3409023  52.1632677  27.6428313  33.1530007
  52.7822882  26.4068767  33.7703403  56.1277067  13.5818613  44.9392957
  56.8686780  14.1825766  44.8597419  56.3594990  12.8396251  44.3811000
  51.2718405  18.7674980  43.2171187  51.1571920  17.8660237  43.5178286
  50.4162922  19.0138677  42.8656003  58.3510242  26.7092720  44.8158687
  57.9074097  25.9229099  44.4979592  59.0127456  26.8971871  44.1502578
  53.1097364  28.2388522  39.3419366  53.6604789  28.1105585  38.5696360
  52.2708840  28.5383411  38.9914259  60.4491481  26.9895520  42.8440089
  60.4309956  27.8104401  42.3520358  61.3711401  26.8649596  43.0690230
  56.9064535  24.5039650  43.6863597  57.4392871  23.7427938  43.4562905
  56.3778616  24.2113302  44.4287751  60.0734230   9.6099716  39.2157239
  59.7298499  10.5001357  39.1396349  60.4413192   9.4201373  38.3526824
  48.1420080  21.9333246  32.0345841  48.9795302  22.3430255  31.8179549
  48.3198348  20.9932688  32.0046035  60.0384512  19.6008327  27.7229674
  59.5231136  20.3712931  27.9618061  59.7661821  18.9273463  28.3462735
  57.6231623  14.4458028  32.7814912  56.7673220  14.0564878  32.6020551
  58.0358575  14.5249988  31.9214698  59.1530770  11.9804371  37.1806472
  58.6495566  11.9434506  36.3674277  59.4461377  12.8897114  37.2403129
  55.3973656  12.0643101  36.1872654  56.2626653  11.8685909  35.8278543
  55.4651165  11.8353452  37.1142010  65.0118786  22.3540681  29.6582847
  64.2348229  22.0151841  29.2138009  65.6910267  22.3593305  28.9837812
  59.8270816  17.4735419  29.5489455  59.5220951  17.7881568  30.3999598
  60.7801258  17.5516839  29.5916788  58.2717247  23.6325642  31.1982409
  57.7438609  22.8978402  30.8855646  57.7704750  24.4100319  30.9522377
  63.2510093  21.8274663  36.3149455  62.5933768  22.5173924  36.4029584
  64.0550493  22.2171095  36.6583442  53.0035975  14.2945309  33.5589020
  53.5779727  14.0720490  32.8262213  53.5906957  14.3634003  34.3117622
  62.0615552  20.1819035  34.3653397  62.5747434  20.8149027  34.8675107
  62.7116776  19.5820231  33.9996757  53.3305562  16.3249770  27.5784906
  52.4942874  16.6624456  27.8994180  53.1910332  16.1898749  26.6412043
  55.3058643  11.1686557  32.2864090  54.6523055  10.8535575  31.6620705
  55.2639117  10.5462298  33.0123913  56.4169848  21.4505853  24.2017382
  55.5096909  21.2195106  24.4008531  56.9140880  20.6543472  24.3891364
  59.3237926  30.1603360  27.1214068  58.6499625  30.4635056  27.7299026
  59.7103748  30.9632440  26.7719525  58.5396383  17.6568491  36.6111738
  57.6218944  17.8783438  36.4533426  58.9556527  17.7314801  35.7523445
  59.3231431  19.0559907  31.7414418  60.0703250  19.5681304  31.4321540
  59.5923020  18.7343959  32.6018811  57.5958081  21.5518447  28.7241372
  56.6869300  21.2677480  28.8213842  57.6253165  21.9717526  27.8644679
  62.8277348  25.1625037  32.4932540  62.3739676  24.3215947  32.5497730
  62.1971315  25.7986435  32.8307320  61.7710268  16.0917023  33.7233207
  61.0333025  15.5794409  34.0543450  62.0237042  15.6517405  32.9116484
  61.2710288  27.0001534  33.4282358  61.5633262  27.5606591  32.7094723
  61.7808908  27.2930095  34.1835517  61.8721895   8.8693275  34.3174976
  62.1780772   8.0090638  34.0300891  62.5974500   9.4610895  34.1173970
  48.1646251  19.2723962  32.7056574  47.9670651  18.6793322  31.9807641
  47.6092915  18.9676172  33.4232513  56.1442975  19.1647068  34.8251167
  56.1991585  18.2120904  34.7493644  55.3334177  19.3206507  35.3092466
  57.2934169  23.0927191  26.0629451  56.8553599  22.3763050  25.6035088
  58.0344610  23.3203306  25.5014542  54.0835335  17.7824128  32.5841546
  53.2703200  18.0818298  32.9906738  54.5794329  17.3879817  33.3016029
  56.2343913  27.7781885  34.5175811  56.1920092  28.0042731  33.5884343
  57.1506612  27.5445259  34.6661612  59.6809547  18.2465952  41.4156440
  60.0358934  18.4737425  42.2750906  60.3281678  18.5784329  40.7933695
  65.4107284  21.3684388  32.1205769  65.2725182  21.5585984  31.1926958
  65.0543502  22.1303771  32.5773820  53.5749410  15.3542483  38.2002781
  54.2148789  15.2131242  37.5025745  52.7426940  15.0676997  37.8241383
  65.4376663  23.4360915  37.1317041  65.8713170  23.3436204  37.9800095
  66.1508244  23.4118416  36.4937057  54.3509714  24.6544914  34.3137774
  55.1450312  24.1595234  34.1120349  53.6401406  24.1262777  33.9505479
  59.1704558  27.0363009  38.6650141  59.2241580  27.6053946  39.4327857
  58.3019339  27.2064894  38.3004178  50.6592477  18.7987995  30.3897526
  49.7290065  18.7372451  30.6067489  50.7549949  18.2763948  29.5934168
  50.5778026  15.3242808  32.9775768  50.8384843  16.2388141  32.8684929
  51.3995198  14.8567251  33.1272381  52.0502951  16.7380565  40.1474593
  52.7226005  16.5297928  39.4987241  51.2232738  16.5402651  39.7079825
  66.2992213  23.4784616  39.6649926  66.4928103  24.3830426  39.9109201
  66.1992831  23.0192035  40.4988511  57.9528523  13.3642506  42.1640253
  57.3056439  14.0632456  42.0704730  58.7229539  13.7978650  42.5316502
  61.3607321  23.6291358  45.2390807  61.2092828  23.4001910  44.3220890
  61.3512001  24.5861960  45.2522152  58.1292658  21.2023271  40.2237073
  59.0584718  21.3534431  40.0506040  57.7083688  21.2907292  39.3685720
  56.9280990  25.2273936  37.9935611  56.7892075  24.8592720  38.8661549
  56.1395586  25.7421575  37.8219569  57.5229142  30.3283032  29.3361147
  57.6980897  29.8571075  30.1506770  56.8361930  30.9548798  29.5642408
  58.4786205  24.6055538  35.3824449  58.1436037  24.5656308  36.2782098
  57.9790150  23.9400254  34.9094859  52.4530449  20.0123168  40.9077030
  52.3150247  19.2803407  41.5088569  53.3635372  19.9232068  40.6261217
  61.4145396  21.9511573  25.6561508  60.7974567  21.2258401  25.5594561
  60.9461885  22.7120933  25.3128582  55.0812749  19.7243128  40.3960709
  55.7912368  19.0836320  40.3547328  55.0382058  19.9756023  41.3186890
  63.0699528  26.6610481  43.3167289  63.0112074  25.9769701  42.6497872
  63.4719046  27.4029471  42.8647915  53.7941683  16.7108346  42.2156349
  53.2579040  16.2599084  42.8677945  53.2058392  16.8454254  41.4726813
  52.0890227  33.4772395  36.1101007  52.3286825  34.1090919  36.7880026
  51.2459423  33.1260435  36.3966367  53.2043942  16.1696997  24.7782813
  52.3273409  16.0485798  24.4145059  53.6801695  15.3783075  24.5261701
  63.0716935  24.6250065  41.5481268  62.1843714  24.2875987  41.6707667
  63.6415486  23.8933096  41.7850034  49.5280805  15.8464353  39.3009343
  49.4438993  15.2390023  38.5659753  48.7063511  16.3373372  39.3018840
  56.6018089  29.2851517  38.5142511  56.5288260  30.0906489  39.0261816
  56.1595482  29.4843483  37.6890533  56.3907868  28.5223287  32.0245333
  55.6075390  29.0644968  32.1183558  57.0900614  29.0397267  32.4239574
  59.7004518  14.3317917  34.6679538  60.1973218  13.5787879  34.3480609
  58.9291500  14.3682233  34.1022748  67.5534276  20.0358282  36.3097830
  67.5424152  20.9182998  35.9391763  66.6851655  19.6829833  36.1152367
  59.0616772  29.1838351  40.6700670  59.7744744  29.8185816  40.5976572
  58.5706801  29.2802217  39.8540672  60.7834299  23.0889604  32.2417962
  59.8490578  23.2091067  32.0722666  60.9610968  22.1862071  31.9777972
  56.2839487  16.4735300  34.3951223  55.9137275  15.9206340  35.0832129
  56.7798580  15.8693433  33.8426223  64.1706851  18.9306923  32.7767996
  64.6367303  19.7634915  32.7028299  64.6214351  18.4651905  33.4813254
  54.1128686  26.9332795  41.4906241  54.8138145  27.5669278  41.6435635
  53.6423801  27.2747526  40.7301880  62.2383082  25.2750745  29.7754148
  62.5142926  25.1607339  30.6848022  61.3687580  24.8768229  29.7366321
  62.1423513  11.2987510  36.8158897  61.2286593  11.5291737  36.9841104
  62.5716615  11.3825954  37.6672930  61.9129972  19.4877402  39.3158791
  61.2601422  19.7353310  38.6611244  62.2910352  18.6741540  38.9821269
  58.8737146  29.5237095  33.4186962  59.0559540  28.7058751  33.8814714
  59.6970132  29.7404788  32.9811852  59.2079311  28.4505281  30.6802010
  59.7367078  27.9397735  30.0672172  59.4707531  28.1347811  31.5447543
  57.9617545  20.2297213  45.8024828  57.2858182  20.1291343  46.4727204
  58.7845179  20.0736427  46.2660826  49.7096404  26.4669150  38.4237344
  50.2949841  25.7212838  38.5565248  49.5121242  26.7773107  39.3074008
  52.5635059  29.5020397  33.4399786  51.8945434  29.9866525  32.9563826
  52.4247929  29.7489618  34.3543165  44.3014059  19.0374750  37.1441787
  44.3398158  18.5038341  37.9378905  43.7954351  18.5109956  36.5252764
  56.7040328  31.5364141  40.0382444  57.2558636  31.6995762  40.8031530
  57.0446521  32.1268579  39.3662469  51.6804821  13.8839291  40.6404329
  51.7446147  14.7454121  40.2281727  51.6171941  13.2713292  39.9076688
  51.1557093  15.9562423  44.2877363  51.7829132  15.5739500  44.9014888
  50.2985012  15.7376625  44.6533056  61.5551202  26.3625398  45.8931099
  62.0991106  26.9755357  45.3986054  60.9738047  26.9204977  46.4098112
  47.9322636  17.7638852  30.2195718  48.2276077  16.8549531  30.1662772
  47.0310672  17.7426592  29.8976721  59.8408715  29.4846116  37.0246127
  59.7159854  28.6835856  36.5157072  60.4987806  29.9792310  36.5360097
  51.4616883  15.8394849  36.2023267  50.7403469  16.4530817  36.0630740
  52.2510139  16.3752614  36.1239913  61.9043623  27.2855136  38.6525677
  60.9573959  27.1660488  38.5804003  62.2526396  26.3977634  38.7351938
  54.2643197  13.1749275  42.4763919  54.7877599  13.4211572  43.2390228
  54.0455530  14.0069310  42.0567056  49.6610478  15.4452950  30.3435043
  49.3323184  14.5650329  30.1610149  50.0149848  15.3900619  31.2311433
  58.9090057  27.0807853  34.8530029  58.7615019  26.1524560  35.0337599
  59.7343550  27.1027943  34.3687104  52.7752301  15.7325920  30.7110521
  53.1148373  16.2611841  29.9889129  53.2224421  16.0706326  31.4869088
  62.5124178  27.9036411  35.9394902  63.4370726  27.6979273  35.8019353
  62.3439482  27.6552813  36.8484243  55.4695742  14.1162970  40.1613589
  55.1292562  13.3170783  40.5634269  54.7634748  14.4164681  39.5890422
  56.1212214  11.2012283  38.6140912  56.9438283  10.7272761  38.4919802
  56.3650277  11.9802767  39.1139598  54.7620448  14.2300541  28.9103814
  55.4828811  14.6081794  28.4067531  54.1385752  14.9489418  29.0138792
  58.9051571  14.9345690  29.8462146  59.1215185  15.8170328  29.5450974
  58.4245638  14.5431904  29.1167788  53.6450792  17.8931403  36.4232891
  53.4995373  18.2071707  37.3157172  53.1675996  18.5116304  35.8703789
  55.5047175  14.8833951  36.4713780  55.4908744  13.9875045  36.1346078
  56.2219603  14.8904615  37.1052066  57.3573306  15.3171292  38.5166908
  57.0991084  16.2388362  38.5151238  56.8258346  14.9201726  39.2067372
  62.3019495  28.4222079  31.2956993  62.4756372  27.8568501  30.5430846
  62.7948386  29.2222974  31.1136483  48.1196454  20.4336748  39.3620552
  47.5749923  21.2096556  39.4940826  48.9975804  20.7807552  39.2039673
  54.9084071  13.7648332  31.7401350  55.0299982  12.8364978  31.9392238
  54.6186113  13.7787018  30.8279666  57.7775262  11.4503242  34.8768070
  57.7996958  11.5142575  33.9220050  58.1943321  10.6107751  35.0708576
  68.1558886  21.1858502  32.9147293  68.5990032  20.4365827  32.5166416
  67.2785396  21.1768638  32.5321025  63.2894667  27.7388843  28.3953891
  63.9845572  28.3595536  28.6141206  63.6317817  26.8884194  28.6706269
  48.9062476  19.5606644  42.2550709  48.1644212  19.7089280  42.8415339
  48.5855221  19.8214910  41.3917458  65.1886090  25.1888549  29.9241222
  65.7137414  25.5275821  29.1990542  65.1008443  24.2535564  29.7404357
  56.8506139  29.1022622  42.0531099  57.1593265  28.8571769  42.9253798
  57.6481621  29.3069261  41.5649969  56.8726751  31.2560532  34.2836475
  56.4331741  30.7636911  34.9769332  57.6234868  30.7133500  34.0428551
  49.3519090  27.4472073  34.2861103  50.1777110  27.1475845  33.9059747
  49.0013142  26.6779695  34.7350892  54.3200623  26.7998541  36.3558777
  53.6980632  26.1369246  36.0561005  54.9905490  26.8259673  35.6732425
  47.5527695  25.3658399  35.2450037  46.7159603  24.9380574  35.0634038
  47.5251340  25.5590843  36.1820828  54.3925151  15.2780329  45.9491283
  54.4413306  16.1542452  45.5669053  54.9347665  14.7357722  45.3762926
  64.8779996  25.8221452  45.2292420  64.0875540  25.8045591  44.6896919
  64.6413351  26.3609746  45.9841457  64.9977871  22.6713919  42.5425149
  65.0475876  22.5063926  43.4840671  64.8891795  21.8041178  42.1523029
  53.8814130  25.3502464  29.8317238  54.0302250  26.0337929  29.1783910
  54.6880574  25.3307554  30.3466693  62.2881634  18.6544847  43.8584455
  63.1891497  18.5151312  43.5668453  62.3629608  18.8199302  44.7982633
  56.6224439  16.0311702  42.7037642  55.7527749  16.3245268  42.4320230
  56.8583919  16.6152147  43.4244905  66.4996068  25.0910860  42.7867170
  66.2080877  25.4540841  43.6230631  65.8868200  24.3777869  42.6080502
  67.6991751  22.6563740  35.3069740  68.5338642  23.0953544  35.4707301
  67.8350879  22.1802393  34.4877986  64.7483256  20.2143475  41.2547228
  65.2237378  20.4071121  40.4466080  63.8248822  20.2702661  41.0090612
  51.6366763  21.3767642  30.8378306  51.3912805  20.4729972  31.0358517
  51.8062678  21.3784793  29.8957784  59.3263473  12.2491318  40.2203062
  59.8445417  12.9852345  39.8949551  58.9718606  12.5555312  41.0549821
  50.9062411  17.1096000  28.3364468  50.2131656  17.1840355  27.6804504
  50.6614163  16.3456343  28.8585985  59.5776067   8.6691601  35.7403959
  59.8577821   8.0014790  36.3664385  60.3626674   8.8620697  35.2278622
  57.3809536  27.8450595  27.3028985  56.8083503  28.4640782  26.8499457
  57.9542329  28.3949957  27.8368907  63.4484925  17.0909235  39.4875534
  64.4002348  17.1907333  39.5087758  63.2788376  16.2987504  39.9973618
  61.4699305  14.1764818  39.6734935  60.8749237  14.4569831  38.9781423
  61.1849002  14.6658719  40.4451676  60.6006795  28.1287745  28.4337567
  61.5337469  28.0633307  28.6370443  60.5130008  28.9644012  27.9752100
  63.2294812  27.4453615  25.3941515  63.1508444  27.1113479  26.2877273
  64.0504479  27.9375383  25.3932987  65.9273003  20.3115355  38.6017833
  65.8949323  19.3731355  38.7877517  66.5373627  20.3899391  37.8683658
  57.7656334  19.1811408  24.6445037  58.7115439  19.0517616  24.7133455
  57.3870579  18.4426070  25.1214466  66.0767492  17.1026398  38.6476117
  65.5606540  16.3184855  38.4606045  66.9607440  16.7745115  38.8122636
  63.7378219  10.8467414  34.6071929  63.5403040  10.5382502  35.4915261
  64.3477924  11.5729053  34.7369859  69.8264850  19.5139224  38.3398321
  69.0998014  19.3795189  37.7314813  69.4112137  19.8216053  39.1455039
  57.6495027  23.2329154  46.1045694  58.5698036  23.4107753  46.2985741
  57.6144610  22.2885199  45.9525394  55.9499251  17.1061384  24.5799923
  55.0430707  16.8094497  24.6562636  56.2275232  16.8091202  23.7134209
  46.8677192  18.4267747  35.0298969  46.5479976  17.5733056  34.7373343
  46.3210620  18.6416326  35.7856936  50.6457099  21.1430188  38.7468476
  50.8643109  22.0747296  38.7656509  51.0582873  20.7838163  39.5323279
  57.5661317  11.6498274  30.7344164  56.7562045  11.3045359  31.1099410
  58.2545734  11.3405817  31.3231776  59.4951865  10.7276321  32.3568461
  60.0482904  11.1471774  33.0158484  59.7321952   9.8012069  32.3991417
  55.5184965  16.7163394  48.1371225  55.4181691  17.6657751  48.0683316
  55.3006507  16.3881633  47.2647295  54.7198036  13.9648319  24.7211902
  55.5817200  14.2903218  24.9807719  54.9048380  13.1779815  24.2084968
  46.7365452  22.0470659  36.9992091  46.0428923  21.6324612  36.4862045
  47.4838443  22.0891195  36.4025510  62.8730672  12.8376846  31.8647125
  62.2929341  13.4961650  31.4825177  62.6066605  12.0154190  31.4534542
  61.3234239  12.2381903  34.0668445  61.8234017  12.3498438  33.2582764
  61.9669847  11.9342956  34.7069254  55.3816235  20.1460533  46.9536286
  54.8983316  20.9460893  47.1600175  55.4677174  20.1568478  46.0003730
  48.6502194  21.9788913  34.8758106  48.6272882  22.0776600  33.9239989
  48.9602831  22.8254064  35.1975272  51.3089572  24.0365068  38.9904720
  52.2632826  24.0049010  38.9234652  51.1102096  23.5755691  39.8054946
  51.8988954  22.6066184  41.5575518  52.7181843  23.1010262  41.5810355
  52.1725762  21.6898152  41.5293085  61.6555550  14.9976936  30.9203473
  60.7681405  15.2826587  30.7023668  62.0709539  14.8370699  30.0730750
  65.0070087  15.0223457  34.6357812  65.7830477  15.5119910  34.9082429
  64.2818221  15.4481511  35.0929682  67.4442645  15.7351076  35.6931753
  68.0387136  15.4946812  34.9825061  67.5169229  15.0158207  36.3205289
  49.6639801  29.5784687  36.0074918  49.5294269  28.8185088  35.4412916
  49.2471863  30.3025587  35.5403707  60.7998764  24.7621611  25.0151493
  61.5034614  24.9671613  25.6309149  60.0761413  25.3298373  25.2800577
  61.6296574  20.5131472  31.1353763  61.5731776  20.9700023  30.2961396
  62.1824917  19.7522157  30.9576606  65.4401380  16.3021204  31.9603883
  65.1838314  15.9017840  32.7912090  64.8154248  17.0164998  31.8354022
  69.7513718  19.0417277  34.4675174  69.1913276  19.1110466  35.2406736
  69.1457221  18.8658262  33.7474670  52.8208927  30.4754004  36.2193360
  52.7041311  31.4199437  36.1172051  52.0001373  30.1727566  36.6079160
  62.7085461  25.2004140  27.0649953  63.5431065  24.7685338  26.8827428
  62.5469804  25.0286154  27.9926848  62.3631353  21.7036253  28.4306292
  62.3080157  21.5380525  27.4894737  61.7377409  22.4112286  28.5868482
  47.1523868  16.9404318  42.2567715  47.7982732  16.4303272  42.7454940
  46.9441020  17.6772999  42.8311140  59.6777261  24.0085165  47.7559855
  60.5468420  24.1825817  47.3946490  59.1984012  24.8279582  47.6335585
  55.6727479  11.2044362  28.0091611  55.6606149  12.1486202  28.1659882
  56.5650901  11.0214508  27.7151072  53.8463441  31.1282266  39.4349289
  54.7490688  31.1605876  39.7515784  53.6200811  30.1982717  39.4495625
  55.6017043  29.8813253  36.0959368  54.6512674  29.8815114  35.9823740
  55.9049529  29.1345987  35.5795402  59.4879598   7.7987139  32.2637548
  58.7211994   7.2445626  32.4094230  59.8990303   7.8709008  33.1251699
  51.4921359  14.0871935  46.3542729  52.3552821  13.7308740  46.5646053
  50.9186770  13.7485830  47.0418133  68.1459443  35.6701219  37.0966655
  67.8077954  35.5542284  36.2087189  69.0149211  35.2692384  37.0767661
  64.0046258  37.5236696  33.0863546  63.4411123  37.4326633  32.3179833
  63.8898653  36.7036600  33.5666038  68.6279226  36.8236071  43.0552860
  68.6167866  36.4288869  42.1833364  68.7899865  36.0902144  43.6486632
  61.5510690  39.0187887  35.9247766  62.3431982  38.6778712  35.5094065
  61.7907340  39.1282862  36.8449919  69.5845817  41.1907663  28.3978010
  68.9333797  41.7761744  28.0112024  70.3790180  41.7213858  28.4573048
  63.5101444  38.2796800  28.7965145  64.2832320  37.7325788  28.6578021
  63.8626843  39.1441050  29.0079606  65.3486487  39.6073183  42.0032044
  65.0576353  40.5118814  41.8878710  65.9843471  39.6489710  42.7176114
  66.2742694  36.9850031  38.5933404  66.8706266  36.7606054  37.8790367
  66.3317665  36.2434777  39.1958852  65.8467722  34.4389467  26.4283595
  66.0993243  33.9170988  25.6667058  64.9092281  34.2755612  26.5310278
  71.0621082  38.8798095  28.9346995  70.4266915  38.9532722  29.6467899
  70.7318489  39.4691694  28.2566074  65.5664011  36.3417573  28.6307970
  65.4500269  35.6662476  29.2989054  65.6766271  35.8549946  27.8140123
  67.9095552  35.8027720  32.3354659  67.5453759  35.2758341  33.0467580
  68.7662668  35.4126189  32.1621144  67.5501039  30.8317619  27.3316007
  67.7175441  31.6997856  27.6986478  67.3598208  30.9944901  26.4077297
  70.3076372  39.2934598  38.9981838  70.0077095  40.1959637  38.8897645
  69.9627431  39.0266781  39.8502991  63.7588853  35.7448395  35.0318542
  62.8339350  35.6124609  35.2396234  64.0073267  36.5242614  35.5288485
  67.5290260  33.2875277  28.3162674  67.4089885  33.7332328  29.1548155
  66.8342848  33.6360594  27.7576212  61.1197664  35.3881669  35.8662331
  61.2490046  35.6416148  36.7801743  60.4395116  35.9809377  35.5466986
  65.2897152  46.0578919  31.9652805  65.2121181  47.0086744  32.0441286
  64.6858795  45.7124791  32.6227732  67.7814381  33.2306784  44.6214172
  67.0047715  33.7900704  44.6117037  68.4204944  33.7163567  45.1429042
  66.0360754  36.0392237  44.1832139  66.7775438  36.5777281  43.9066963
  65.3297739  36.6658526  44.3403691  67.8647163  33.1193985  40.1537858
  68.7108359  33.5433398  40.2972507  67.8045801  32.4627609  40.8476421
  71.0146609  30.7798353  41.8119031  70.7707541  31.5340413  41.2753307
  71.2906539  31.1583701  42.6466279  70.5711300  29.9354786  37.3932869
  69.7095780  30.2336040  37.6849607  70.5973735  30.1525185  36.4613902
  67.3872870  38.4796977  33.8006675  67.8511215  38.7584680  33.0111297
  67.1229668  37.5780421  33.6179766  64.2796951  38.0268458  36.7386438
  64.8498308  38.4555726  36.1003923  64.8705063  37.7451043  37.4370624
  66.3241756  34.6020129  30.6096240  67.0265799  35.0541173  31.0770166
  65.9922384  33.9603948  31.2376133  64.7722117  33.1931886  44.9847449
  64.1420778  33.8748166  45.2182846  64.6658205  33.0814967  44.0400588
  60.0667090  32.8603682  35.9113374  59.2766144  33.1161210  35.4353484
  60.5578337  33.6752019  36.0165414  62.0181835  33.2248261  32.8696850
  61.2212999  33.3366955  33.3880346  61.7907427  33.5634913  32.0037741
  67.8487503  39.7492964  40.8179365  67.9131935  40.2113371  41.6537537
  67.1398427  39.1190329  40.9461675  58.3504793  33.1134172  38.3428364
  58.6012831  33.9981182  38.6085940  58.8864341  32.9338774  37.5703456
  67.5635521  41.4161072  30.6858345  67.4281195  42.2612607  31.1143193
  68.1045333  41.6180349  29.9224279  64.0502860  27.4952651  47.3472700
  63.6569806  26.9418850  48.0220345  64.8669001  27.8063230  47.7379218
  61.0164918  38.9336510  31.2586270  61.5289439  39.7279760  31.4091835
  61.6687631  38.2362800  31.1919872  62.8259803  42.0502266  33.3409023
  63.0026431  42.9720231  33.1530007  63.6216636  41.7360685  33.7703403
  66.9670821  28.9110530  44.9392957  67.7080535  29.5117684  44.8597419
  67.1988744  28.1688168  44.3811000  62.1112159  34.0966898  43.2171187
  61.9965674  33.1952155  43.5178286  61.2556677  34.3430594  42.8656003
  69.1903997  42.0384638  44.8158687  68.7467851  41.2521017  44.4979592
  69.8521211  42.2263789  44.1502578  63.9491118  43.5680440  39.3419366
  64.4998543  43.4397503  38.5696360  63.1102594  43.8675329  38.9914259
  67.7458289  39.8331567  43.6863597  68.2786626  39.0719856  43.4562905
  67.2172370  39.5405219  44.4287751  70.9127984  24.9391633  39.2157239
  70.5692254  25.8293275  39.1396349  71.2806947  24.7493291  38.3526824
  58.9813835  37.2625164  32.0345841  59.8189057  37.6722172  31.8179549
  59.1592102  36.3224606  32.0046035  70.8778267  34.9300245  27.7229674
  70.3624890  35.7004849  27.9618061  70.6055575  34.2565381  28.3462735
  68.4625378  29.7749945  32.7814912  67.6066974  29.3856796  32.6020551
  68.8752330  29.8541906  31.9214698  69.9924525  27.3096289  37.1806472
  69.4889320  27.2726424  36.3674277  70.2855131  28.2189031  37.2403129
  66.2367410  27.3935018  36.1872654  67.1020407  27.1977827  35.8278543
  66.3044919  27.1645370  37.1142010  69.1111002  38.9617560  31.1982409
  68.5832363  38.2270320  30.8855646  68.6098505  39.7392236  30.9522377
  63.8429729  29.6237226  33.5589020  64.4173481  29.4012408  32.8262213
  64.4300712  29.6925921  34.3117622  64.1699317  31.6541687  27.5784906
  63.3336629  31.9916374  27.8994180  64.0304086  31.5190667  26.6412043
  66.1452397  26.4978475  32.2864090  65.4916810  26.1827492  31.6620705
  66.1032871  25.8754216  33.0123913  67.2563602  36.7797770  24.2017382
  66.3490664  36.5487024  24.4008531  67.7534634  35.9835389  24.3891364
  70.1631681  45.4895277  27.1214068  69.4893380  45.7926974  27.7299026
  70.5497503  46.2924358  26.7719525  69.3790138  32.9860409  36.6111738
  68.4612699  33.2075356  36.4533426  69.7950281  33.0606719  35.7523445
  70.1625185  34.3851824  31.7414418  70.9097004  34.8973222  31.4321540
  70.4316775  34.0635877  32.6018811  68.4351835  36.8810365  28.7241372
  67.5263055  36.5969398  28.8213842  68.4646919  37.3009444  27.8644679
  59.0040006  34.6015879  32.7056574  58.8064406  34.0085240  31.9807641
  58.4486670  34.2968089  33.4232513  66.9836730  34.4938986  34.8251167
  67.0385339  33.5412822  34.7493644  66.1727932  34.6498425  35.3092466
  68.1327923  38.4219109  26.0629451  67.6947353  37.7054968  25.6035088
  68.8738364  38.6495224  25.5014542  64.9229089  33.1116045  32.5841546
  64.1096955  33.4110216  32.9906738  65.4188084  32.7171734  33.3016029
  67.0737667  43.1073802  34.5175811  67.0313846  43.3334649  33.5884343
  67.9900366  42.8737177  34.6661612  70.5203301  33.5757870  41.4156440
  70.8752689  33.8029343  42.2750906  71.1675432  33.9076247  40.7933695
  64.4143164  30.6834401  38.2002781  65.0542544  30.5423160  37.5025745
  63.5820695  30.3968914  37.8241383  65.1903468  39.9836831  34.3137774
  65.9844067  39.4887151  34.1120349  64.4795160  39.4554694  33.9505479
  70.0098313  42.3654927  38.6650141  70.0635335  42.9345863  39.4327857
  69.1413094  42.5356812  38.3004178  61.4986232  34.1279913  30.3897526
  60.5683820  34.0664369  30.6067489  61.5943704  33.6055866  29.5934168
  61.4171781  30.6534726  32.9775768  61.6778598  31.5680059  32.8684929
  62.2388953  30.1859168  33.1272381  62.8896706  32.0672483  40.1474593
  63.5619759  31.8589845  39.4987241  62.0626492  31.8694569  39.7079825
  68.7922278  28.6934424  42.1640253  68.1450193  29.3924374  42.0704730
  69.5623293  29.1270568  42.5316502  68.9686412  36.5315189  40.2237073
  69.8978472  36.6826349  40.0506040  68.5477442  36.6199210  39.3685720
  67.7674744  40.5565853  37.9935611  67.6285830  40.1884638  38.8661549
  66.9789340  41.0713493  37.8219569  68.3622896  45.6574950  29.3361147
  68.5374652  45.1862993  30.1506770  67.6755684  46.2840716  29.5642408
  69.3179959  39.9347456  35.3824449  68.9829792  39.8948226  36.2782098
  68.8183905  39.2692172  34.9094859  63.2924203  35.3415086  40.9077030
  63.1544001  34.6095325  41.5088569  64.2029127  35.2523986  40.6261217
  65.9206504  35.0535045  40.3960709  66.6306122  34.4128238  40.3547328
  65.8775812  35.3047940  41.3186890  64.6335438  32.0400263  42.2156349
  64.0972795  31.5891002  42.8677945  64.0452146  32.1746172  41.4726813
  62.9283981  48.8064313  36.1101007  63.1680580  49.4382837  36.7880026
  62.0853178  48.4552353  36.3966367  64.0437697  31.4988915  24.7782813
  63.1667163  31.3777715  24.4145059  64.5195450  30.7074993  24.5261701
  55.5639837  36.2866074  34.8724320  56.2510877  35.9727804  34.2845335
  55.4087966  37.1907439  34.5991571  60.3674559  31.1756271  39.3009343
  60.2832748  30.5681941  38.5659753  59.5457265  31.6665289  39.3018840
  67.4411843  44.6143435  38.5142511  67.3682015  45.4198407  39.0261816
  66.9989236  44.8135401  37.6890533  67.2301623  43.8515205  32.0245333
  66.4469145  44.3936885  32.1183558  67.9294368  44.3689185  32.4239574
  70.5398273  29.6609835  34.6679538  71.0366973  28.9079797  34.3480609
  69.7685254  29.6974151  34.1022748  69.9010527  44.5130269  40.6700670
  70.6138499  45.1477734  40.5976572  69.4100555  44.6094135  39.8540672
  67.1233242  31.8027217  34.3951223  66.7531029  31.2498258  35.0832129
  67.6192334  31.1985351  33.8426223  64.9522440  42.2624713  41.4906241
  65.6531900  42.8961195  41.6435635  64.4817555  42.6039444  40.7301880
  69.7130900  44.8529013  33.4186962  69.8953295  44.0350669  33.8814714
  70.5363886  45.0696705  32.9811852  70.0473066  43.7797198  30.6802010
  70.5760832  43.2689653  30.0672172  70.3101285  43.4639728  31.5447543
  68.8011299  35.5589131  45.8024828  68.1251936  35.4583260  46.4727204
  69.6238933  35.4028345  46.2660826  60.5490158  41.7961068  38.4237344
  61.1343595  41.0504755  38.5565248  60.3514997  42.1065024  39.3074008
  63.4028814  44.8312315  33.4399786  62.7339189  45.3158443  32.9563826
  63.2641683  45.0781535  34.3543165  55.1407813  34.3666668  37.1441787
  55.1791913  33.8330258  37.9378905  54.6348106  33.8401873  36.5252764
  67.5434082  46.8656058  40.0382444  68.0952390  47.0287680  40.8031530
  67.8840276  47.4560496  39.3662469  62.5198575  29.2131208  40.6404329
  62.5839902  30.0746039  40.2281727  62.4565696  28.6005210  39.9076688
  61.9950848  31.2854341  44.2877363  62.6222887  30.9031418  44.9014888
  61.1378767  31.0668543  44.6533056  58.7716391  33.0930770  30.2195718
  59.0669832  32.1841448  30.1662772  57.8704426  33.0718509  29.8976721
  62.3010638  31.1686766  36.2023267  61.5797223  31.7822734  36.0630740
  63.0903893  31.7044531  36.1239913  65.1036951  28.5041193  42.4763919
  65.6271353  28.7503490  43.2390228  64.8849284  29.3361228  42.0567056
  60.5004232  30.7744868  30.3435043  60.1716938  29.8942246  30.1610149
  60.8543603  30.7192536  31.2311433  69.7483811  42.4099770  34.8530029
  69.6008774  41.4816478  35.0337599  70.5737305  42.4319861  34.3687104
  63.6146055  31.0617837  30.7110521  63.9542128  31.5903759  29.9889129
  64.0618176  31.3998243  31.4869088  66.3089496  29.4454888  40.1613589
  65.9686317  28.6462701  40.5634269  65.6028502  29.7456599  39.5890422
  66.9605968  26.5304201  38.6140912  67.7832037  26.0564679  38.4919802
  67.2044032  27.3094684  39.1139598  65.6014203  29.5592459  28.9103814
  66.3222565  29.9373712  28.4067531  64.9779507  30.2781336  29.0138792
  69.7445325  30.2637608  29.8462146  69.9608940  31.1462246  29.5450974
  69.2639393  29.8723821  29.1167788  64.4844547  33.2223321  36.4232891
  64.3389128  33.5363624  37.3157172  64.0069750  33.8408221  35.8703789
  66.3440930  30.2125869  36.4713780  66.3302498  29.3166962  36.1346078
  67.0613358  30.2196533  37.1052066  68.1967060  30.6463209  38.5166908
  67.9384838  31.5680280  38.5151238  67.6652101  30.2493644  39.2067372
  58.9590209  35.7628666  39.3620552  58.4143677  36.5388474  39.4940826
  59.8369559  36.1099470  39.2039673  65.7477826  29.0940249  31.7401350
  65.8693737  28.1656896  31.9392238  65.4579868  29.1078935  30.8279666
  68.6169016  26.7795160  34.8768070  68.6390713  26.8434493  33.9220050
  69.0337075  25.9399669  35.0708576  59.7456231  34.8898562  42.2550709
  59.0037967  35.0381197  42.8415339  59.4248975  35.1506827  41.3917458
  67.6899893  44.4314540  42.0531099  67.9987020  44.1863687  42.9253798
  68.4875375  44.6361179  41.5649969  67.7120506  46.5852450  34.2836475
  67.2725496  46.0928828  34.9769332  68.4628622  46.0425417  34.0428551
  60.1912845  42.7763991  34.2861103  61.0170864  42.4767762  33.9059747
  59.8406896  42.0071613  34.7350892  65.1594378  42.1290459  36.3558777
  64.5374387  41.4661164  36.0561005  65.8299245  42.1551591  35.6732425
  58.3921450  40.6950317  35.2450037  57.5553358  40.2672491  35.0634038
  58.3645095  40.8882760  36.1820828  65.2318905  30.6072247  45.9491283
  65.2807061  31.4834370  45.5669053  65.7741419  30.0649640  45.3762926
  64.7207885  40.6794382  29.8317238  64.8696005  41.3629847  29.1783910
  65.5274328  40.6599472  30.3466693  67.4618194  31.3603619  42.7037642
  66.5921503  31.6537185  42.4320230  67.6977674  31.9444064  43.4244905
  62.4760518  36.7059560  30.8378306  62.2306559  35.8021890  31.0358517
  62.6456432  36.7076710  29.8957784  70.1657227  27.5783236  40.2203062
  70.6839171  28.3144263  39.8949551  69.8112360  27.8847229  41.0549821
  61.7456165  32.4387917  28.3364468  61.0525410  32.5132272  27.6804504
  61.5007917  31.6748261  28.8585985  70.4169822  23.9983519  35.7403959
  70.6971575  23.3306708  36.3664385  71.2020429  24.1912614  35.2278622
  68.2203290  43.1742513  27.3028985  67.6477257  43.7932700  26.8499457
  68.7936084  43.7241874  27.8368907  68.6050089  34.5103325  24.6445037
  69.5509193  34.3809533  24.7133455  68.2264334  33.7717987  25.1214466
  68.4888781  38.5621071  46.1045694  69.4091791  38.7399670  46.2985741
  68.4538364  37.6177117  45.9525394  66.7893006  32.4353302  24.5799923
  65.8824461  32.1386414  24.6562636  67.0668987  32.1383120  23.7134209
  57.7070946  33.7559665  35.0298969  57.3873730  32.9024973  34.7373343
  57.1604374  33.9708243  35.7856936  61.4850854  36.4722106  38.7468476
  61.7036863  37.4039214  38.7656509  61.8976628  36.1130081  39.5323279
  68.4055071  26.9790191  30.7344164  67.5955800  26.6337276  31.1099410
  69.0939488  26.6697735  31.3231776  70.3345620  26.0568238  32.3568461
  70.8876658  26.4763692  33.0158484  70.5715706  25.1303986  32.3991417
  66.3578719  32.0455312  48.1371225  66.2575446  32.9949669  48.0683316
  66.1400261  31.7173551  47.2647295  65.5591790  29.2940237  24.7211902
  66.4210954  29.6195135  24.9807719  65.7442135  28.5071733  24.2084968
  57.5759206  37.3762577  36.9992091  56.8822678  36.9616529  36.4862045
  58.3232197  37.4183113  36.4025510  66.2209989  35.4752451  46.9536286
  65.7377071  36.2752811  47.1600175  66.3070928  35.4860396  46.0003730
  59.4895949  37.3080830  34.8758106  59.4666637  37.4068518  33.9239989
  59.7996585  38.1545981  35.1975272  62.1483327  39.3656985  38.9904720
  63.1026580  39.3340928  38.9234652  61.9495850  38.9047609  39.8054946
  62.7382709  37.9358101  41.5575518  63.5575598  38.4302180  41.5810355
  63.0119516  37.0190070  41.5293085  60.5033555  44.9076605  36.0074918
  60.3688023  44.1477006  35.4412916  60.0865618  45.6317505  35.5403707
  63.6602681  45.8045922  36.2193360  63.5435065  46.7491354  36.1172051
  62.8395127  45.5019483  36.6079160  57.9917623  32.2696235  42.2567715
  58.6376487  31.7595189  42.7454940  57.7834774  33.0064917  42.8311140
  66.5121233  26.5336280  28.0091611  66.4999903  27.4778120  28.1659882
  67.4044655  26.3506425  27.7151072  64.6857195  46.4574184  39.4349289
  65.5884442  46.4897794  39.7515784  64.4594565  45.5274635  39.4495625
  66.4410797  45.2105170  36.0959368  65.4906428  45.2107032  35.9823740
  66.7443283  44.4637905  35.5795402  70.3273353  23.1279057  32.2637548
  69.5605749  22.5737543  32.4094230  70.7384058  23.2000925  33.1251699
  62.3315114  29.4163852  46.3542729  63.1946575  29.0600657  46.5646053
  61.7580525  29.0777747  47.0418133  69.1898547  48.4426090  38.3428364
  69.4406586  49.3273100  38.6085940  69.7258096  48.2630691  37.5703456
  69.8207589  52.5917082  32.0345841  70.6582811  53.0014090  31.8179549
  69.9985857  51.6516524  32.0046035  69.8433760  49.9307797  32.7056574
  69.6458160  49.3377158  31.9807641  69.2880424  49.6260007  33.4232513
  66.4033591  51.6157992  34.8724320  67.0904631  51.3019722  34.2845335
  66.2481720  52.5199357  34.5991571  71.2068314  46.5048189  39.3009343
  71.1226502  45.8973858  38.5659753  70.3851020  46.9957207  39.3018840
  65.9801568  49.6958585  37.1441787  66.0185667  49.1622176  37.9378905
  65.4741860  49.1693791  36.5252764  69.6110145  48.4222688  30.2195718
  69.9063586  47.5133366  30.1662772  68.7098181  48.4010427  29.8976721
  69.7983963  51.0920583  39.3620552  69.2537432  51.8680391  39.4940826
  70.6763313  51.4391388  39.2039673  70.5849985  50.2190480  42.2550709
  69.8431721  50.3673115  42.8415339  70.2642730  50.4798745  41.3917458
  69.2315204  56.0242235  35.2450037  68.3947112  55.5964409  35.0634038
  69.2038849  56.2174678  36.1820828  68.5464701  49.0851583  35.0298969
  68.2267485  48.2316891  34.7373343  67.9998129  49.3000161  35.7856936
  68.4152961  52.7054494  36.9992091  67.7216432  52.2908447  36.4862045
  69.1625952  52.7475031  36.4025510  70.3289703  52.6372748  34.8758106
  70.3060391  52.7360435  33.9239989  70.6390340  53.4837899  35.1975272
  68.8311377  47.5988153  42.2567715  69.4770241  47.0887107  42.7454940
  68.6228529  48.3356835  42.8311140  54.4503398   7.7349123  18.6898112
  54.3727428   8.6856949  18.7686593  53.8465042   7.3894996  19.3473038
  53.1097365   5.2450645  26.0664672  53.6604790   5.1167708  25.2941666
  52.2708841   5.5445534  25.7159565  59.3237928   7.1665482  13.8459375
  58.6499626   7.4697179  14.4544333  59.7103750   7.9694563  13.4964832
  57.5229143   7.3345155  16.0606454  57.6980899   6.8633198  16.8752077
  56.8361931   7.9610921  16.2887715  52.0890228  10.4834517  22.8346314
  52.3286826  11.1153042  23.5125333  51.2459425  10.1322558  23.1211673
  56.6018090   6.2913640  25.2387818  56.5288261   7.0968611  25.7507123
  56.1595483   6.4905606  24.4135840  56.3907870   5.5285410  18.7490640
  55.6075392   6.0707090  18.8428864  57.0900615   6.0459390  19.1484881
  52.5635060   6.5082520  20.1645093  51.8945436   6.9928647  19.6809133
  52.4247930   6.7551740  21.0788471  56.7040329   8.5426263  26.7627751
  57.2558637   8.7057885  27.5276836  57.0446522   9.1330701  26.0907776
  56.8506140   6.1084745  28.7776405  57.1593267   5.8633892  29.6499105
  57.6481622   6.3131383  28.2895276  56.8726752   8.2622655  21.0081782
  56.4331743   7.7699033  21.7014639  57.6234869   7.7195622  20.7673857
  49.3519091   4.4534195  21.0106410  50.1777111   4.1537967  20.6305054
  49.0013143   3.6841818  21.4596199  49.6639802   6.5846810  22.7320224
  49.5294270   5.8247211  22.1658222  49.2471864   7.3087710  22.2649013
  52.8208928   7.4816127  22.9438667  52.7041312   8.4261559  22.8417357
  52.0001374   7.1789688  23.3324466  53.8463442   8.1344389  26.1594596
  54.7490689   8.1667999  26.4761090  53.6200812   7.2044840  26.1740931
  55.6017044   6.8875375  22.8204674  54.6512675   6.8877237  22.7069046
  55.9049530   6.1408110  22.3040709  68.1459444  12.6763342  23.8211961
  67.8077955  12.5604406  22.9332496  69.0149212  12.2754507  23.8012967
  64.0046260  14.5298818  19.8108852  63.4411125  14.4388755  19.0425140
  63.8898655  13.7098723  20.2911345  68.6279227  13.8298193  29.7798167
  68.6167868  13.4350992  28.9078670  68.7899866  13.0964266  30.3731938
  61.5510692  16.0250010  22.6493073  62.3431983  15.6840834  22.2339372
  61.7907342  16.1344985  23.5695226  63.5101445  15.2858923  15.5210451
  64.2832321  14.7387910  15.3823327  63.8626844  16.1503172  15.7324913
  65.3486488  16.6135305  28.7277351  65.0576354  17.5180936  28.6124017
  65.9843472  16.6551833  29.4421420  66.2742695  13.9912154  25.3178710
  66.8706267  13.7668176  24.6035673  66.3317666  13.2496899  25.9204158
  67.9095553  12.8089842  19.0599966  67.5453760  12.2820463  19.7712887
  68.7662669  12.4188311  18.8866451  70.3076373  16.2996721  25.7227144
  70.0077096  17.2021760  25.6142952  69.9627433  16.0328904  26.5748297
  63.7588855  12.7510518  21.7563849  62.8339351  12.6186732  21.9641541
  64.0073268  13.5304737  22.2533791  61.1197666  12.3943791  22.5907638
  61.2490047  12.6478270  23.5047050  60.4395117  12.9871499  22.2712293
  65.2897153  23.0641041  18.6898112  65.2121183  24.0148866  18.7686593
  64.6858796  22.7186914  19.3473038  67.7814383  10.2368907  31.3459479
  67.0047717  10.7962827  31.3362344  68.4204946  10.7225690  31.8674349
  66.0360755  13.0454360  30.9077446  66.7775439  13.5839404  30.6312270
  65.3297740  13.6720649  31.0648998  67.3872871  15.4859099  20.5251981
  67.8511217  15.7646802  19.7356604  67.1229669  14.5842544  20.3425072
  64.2796952  15.0330581  23.4631745  64.8498309  15.4617849  22.8249229
  64.8705064  14.7513165  24.1615930  66.3241757  11.6082252  17.3341547
  67.0265801  12.0603295  17.8015473  65.9922386  10.9666070  17.9621440
  64.7722119  10.1994008  31.7092756  64.1420779  10.8810289  31.9428153
  64.6658207  10.0877090  30.7645894  60.0667091   9.8665804  22.6358680
  59.2766145  10.1223333  22.1598791  60.5578339  10.6814142  22.7410721
  62.0181837  10.2310383  19.5942157  61.2213000  10.3429078  20.1125653
  61.7907429  10.5697036  18.7283047  67.8487504  16.7555087  27.5424672
  67.9131937  17.2175494  28.3782843  67.1398428  16.1252452  27.6706981
  58.3504794  10.1196295  25.0673671  58.6012833  11.0043305  25.3331247
  58.8864343   9.9400896  24.2948763  67.5635522  18.4223194  17.4103652
  67.4281197  19.2674730  17.8388500  68.1045334  18.6242472  16.6469586
  61.0164919  15.9398632  17.9831577  61.5289440  16.7341882  18.1337142
  61.6687632  15.2424923  17.9165178  62.8259804  19.0564388  20.0654330
  63.0026432  19.9782353  19.8775314  63.6216637  18.7422808  20.4948710
  62.1112160  11.1029020  29.9416493  61.9965676  10.2014278  30.2423592
  61.2556678  11.3492717  29.5901310  69.1903998  19.0446761  31.5403994
  68.7467852  18.2583139  31.2224898  69.8521212  19.2325911  30.8747885
  63.9491119  20.5742562  26.0664672  64.4998544  20.4459626  25.2941666
  63.1102595  20.8737451  25.7159565  67.7458290  16.8393690  30.4108904
  68.2786627  16.0781978  30.1808212  67.2172372  16.5467342  31.1533058
  58.9813836  14.2687286  18.7591147  59.8189058  14.6784295  18.5424855
  59.1592104  13.3286729  18.7291341  69.1111003  15.9679683  17.9227716
  68.5832365  15.2332442  17.6100953  68.6098506  16.7454359  17.6767684
  70.1631682  22.4957400  13.8459375  69.4893381  22.7989097  14.4544333
  70.5497504  23.2986480  13.4964832  59.0040007  11.6078002  19.4301881
  58.8064407  11.0147362  18.7052947  58.4486671  11.3030212  20.1477820
  66.9836731  11.5001108  21.5496474  67.0385341  10.5474945  21.4738951
  66.1727933  11.6560547  22.0337772  64.9229091  10.1178168  19.3086853
  64.1096956  10.4172339  19.7152045  65.4188085   9.7233857  20.0261335
  67.0737669  20.1135925  21.2421118  67.0313847  20.3396771  20.3129650
  67.9900367  19.8799300  21.3906919  70.5203302  10.5819992  28.1401747
  70.8752690  10.8091466  28.9996213  71.1675434  10.9138369  27.5179002
  65.1903469  16.9898954  21.0383080  65.9844068  16.4949274  20.8365655
  64.4795162  16.4616817  20.6750786  70.0098314  19.3717049  25.3895448
  70.0635336  19.9407986  26.1573164  69.1413095  19.5418935  25.0249485
  61.4986233  11.1342036  17.1142833  60.5683821  11.0726491  17.3312795
  61.5943705  10.6117988  16.3179474  62.8896707   9.0734606  26.8719899
  63.5619761   8.8651968  26.2232548  62.0626494   8.8756692  26.4325132
  68.9686414  13.5377312  26.9482380  69.8978474  13.6888471  26.7751347
  68.5477444  13.6261332  26.0931026  67.7674745  17.5627976  24.7180917
  67.6285831  17.1946760  25.5906856  66.9789342  18.0775615  24.5464875
  68.3622897  22.6637072  16.0606454  68.5374653  22.1925116  16.8752077
  67.6755685  23.2902839  16.2887715  69.3179961  16.9409579  22.1069755
  68.9829793  16.9010349  23.0027405  68.8183906  16.2754295  21.6340165
  63.2924204  12.3477209  27.6322336  63.1544002  11.6157447  28.2333875
  64.2029128  12.2586109  27.3506524  65.9206505  12.0597168  27.1206016
  66.6306124  11.4190360  27.0792634  65.8775813  12.3110063  28.0432197
  64.6335439   9.0462386  28.9401655  64.0972796   8.5953124  29.5923252
  64.0452148   9.1808295  28.1972120  62.9283983  25.8126435  22.8346314
  63.1680581  26.4444959  23.5125333  62.0853179  25.4614475  23.1211673
  55.5639838  13.2928197  21.5969626  56.2510878  12.9789927  21.0090642
  55.4087967  14.1969562  21.3236878  60.3674560   8.1818394  26.0254650
  60.2832749   7.5744063  25.2905060  59.5457267   8.6727412  26.0264146
  67.4411844  21.6205558  25.2387818  67.3682016  22.4260529  25.7507123
  66.9989238  21.8197523  24.4135840  67.2301624  20.8577328  18.7490640
  66.4469146  21.3999008  18.8428864  67.9294369  21.3751307  19.1484881
  69.9010528  21.5192392  27.3945977  70.6138500  22.1539856  27.3221878
  69.4100557  21.6156258  26.5785979  64.9522442  19.2686835  28.2151548
  65.6531901  19.9023318  28.3680942  64.4817557  19.6101567  27.4547187
  69.7130901  21.8591136  20.1432268  69.8953296  21.0412792  20.6060021
  70.5363887  22.0758828  19.7057158  70.0473067  20.7859321  17.4047317
  70.5760833  20.2751775  16.7917479  70.3101286  20.4701851  18.2692850
  68.8011301  12.5651254  32.5270135  68.1251938  12.4645383  33.1972510
  69.6238934  12.4090467  32.9906132  60.5490160  18.8023190  25.1482650
  61.1343596  18.0566878  25.2810554  60.3514998  19.1127147  26.0319314
  63.4028815  21.8374438  20.1645093  62.7339190  22.3220565  19.6809133
  63.2641685  22.0843658  21.0788471  55.1407814  11.3728790  23.8687093
  55.1791914  10.8392381  24.6624212  54.6348107  10.8463996  23.2498071
  67.5434083  23.8718181  26.7627751  68.0952391  24.0349803  27.5276836
  67.8840277  24.4622619  26.0907776  61.9950849   8.2916463  31.0122670
  62.6222888   7.9093541  31.6260194  61.1378768   8.0730665  31.3778362
  58.7716392  10.0992893  16.9441025  59.0669833   9.1903571  16.8908079
  57.8704428  10.0780632  16.6222027  62.3010639   8.1748889  22.9268573
  61.5797225   8.7884857  22.7876047  63.0903895   8.7106654  22.8485219
  60.5004234   7.7806990  17.0680350  60.1716940   6.9004369  16.8855456
  60.8543604   7.7254659  17.9556739  69.7483812  19.4161893  21.5775335
  69.6008775  18.4878600  21.7582906  70.5737306  19.4381984  21.0932411
  64.4844548  10.2285444  23.1478197  64.3389129  10.5425747  24.0402479
  64.0069752  10.8470344  22.5949096  58.9590210  12.7690788  26.0865859
  58.4143678  13.5450596  26.2186133  59.8369560  13.1161593  25.9284980
  59.7456232  11.8960684  28.9796015  59.0037968  12.0443320  29.5660646
  59.4248976  12.1568950  28.1162765  67.6899895  21.4376663  28.7776405
  67.9987021  21.1925809  29.6499105  68.4875377  21.6423301  28.2895276
  67.7120507  23.5914572  21.0081782  67.2725497  23.0990951  21.7014639
  68.4628624  23.0487540  20.7673857  60.1912846  19.7826113  21.0106410
  61.0170866  19.4829885  20.6305054  59.8406898  19.0133736  21.4596199
  65.1594379  19.1352581  23.0804084  64.5374388  18.4723286  22.7806311
  65.8299246  19.1613713  22.3977731  58.3921451  17.7012440  21.9695344
  57.5553359  17.2734614  21.7879345  58.3645096  17.8944883  22.9066135
  64.7207886  17.6856505  16.5562544  64.8696006  18.3691969  15.9029217
  65.5274329  17.6661595  17.0712000  62.4760519  13.7121682  17.5623613
  62.2306561  12.8084012  17.7603823  62.6456433  13.7138833  16.6203091
  61.7456166   9.4450040  15.0609775  61.0525411   9.5194395  14.4049810
  61.5007918   8.6810384  15.5831291  68.2203291  20.1804635  14.0274292
  67.6477258  20.7994822  13.5744763  68.7936085  20.7303997  14.5614214
  68.4888782  15.5683194  32.8291001  69.4091792  15.7461793  33.0231048
  68.4538365  14.6239239  32.6770700  57.7070947  10.7621788  21.7544276
  57.3873732   9.9087096  21.4618650  57.1604376  10.9770366  22.5102243
  61.4850855  13.4784229  25.4713782  61.7036865  14.4101337  25.4901816
  61.8976629  13.1192203  26.2568586  57.5759207  14.3824699  23.7237397
  56.8822679  13.9678652  23.2107352  58.3232198  14.4245236  23.1270816
  66.2209990  12.4814573  33.6781593  65.7377072  13.2814933  33.8845482
  66.3070929  12.4922518  32.7249037  59.4895950  14.3142953  21.6003412
  59.4666638  14.4130640  20.6485295  59.7996586  15.1608104  21.9220578
  62.1483328  16.3719108  25.7150027  63.1026581  16.3403050  25.6479958
  61.9495851  15.9109732  26.5300252  62.7382710  14.9420224  28.2820824
  63.5575599  15.4364303  28.3055662  63.0119518  14.0252192  28.2538392
  60.5033557  21.9138728  22.7320224  60.3688025  21.1539128  22.1658222
  60.0865619  22.6379627  22.2649013  63.6602682  22.8108045  22.9438667
  63.5435067  23.7553477  22.8417357  62.8395129  22.5081606  23.3324466
  57.9917624   9.2758358  28.9813021  58.6376488   8.7657312  29.4700246
  57.7834775  10.0127040  29.5556447  64.6857197  23.4636306  26.1594596
  65.5884443  23.4959917  26.4761090  64.4594567  22.5336757  26.1740931
  66.4410799  22.2167293  22.8204674  65.4906430  22.2169155  22.7069046
  66.7443285  21.4700028  22.3040709  69.1898549  25.4488212  25.0673671
  69.4406587  26.3335222  25.3331247  69.7258097  25.2692814  24.2948763
  69.8207590  29.5979204  18.7591147  70.6582812  30.0076213  18.5424855
  69.9985858  28.6578646  18.7291341  69.8433762  26.9369919  19.4301881
  69.6458161  26.3439280  18.7052947  69.2880426  26.6322130  20.1477820
  66.4033593  28.6220115  21.5969626  67.0904633  28.3081845  21.0090642
  66.2481721  29.5261479  21.3236878  71.2068315  23.5110311  26.0254650
  71.1226504  22.9035981  25.2905060  70.3851021  24.0019330  26.0264146
  65.9801569  26.7020708  23.8687093  66.0185668  26.1684299  24.6624212
  65.4741862  26.1755914  23.2498071  69.6110146  25.4284810  16.9441025
  69.9063587  24.5195489  16.8908079  68.7098182  25.4072550  16.6222027
  69.7983965  28.0982706  26.0865859  69.2537433  28.8742514  26.2186133
  70.6763315  28.4453510  25.9284980  70.5849987  27.2252602  28.9796015
  69.8431723  27.3735237  29.5660646  70.2642731  27.4860868  28.1162765
  69.2315205  33.0304357  21.9695344  68.3947114  32.6026532  21.7879345
  69.2038851  33.2236801  22.9066135  68.5464702  26.0913705  21.7544276
  68.2267486  25.2379014  21.4618650  67.9998130  26.3062284  22.5102243
  68.4152962  29.7116617  23.7237397  67.7216433  29.2970570  23.2107352
  69.1625953  29.7537153  23.1270816  70.3289704  29.6434871  21.6003412
  70.3060393  29.7422558  20.6485295  70.6390341  30.4900021  21.9220578
  68.8311379  24.6050276  28.9813021  69.4770242  24.0949230  29.4700246
  68.6228530  25.3418957  29.5556447   6.3007207  35.7173793  63.7114514
   6.9385617  35.5980540  63.0077854   6.1828050  36.6654637  63.7702466
   3.1096913  35.6701221  63.6476038   2.7715425  35.5542286  62.7596573
   3.9786681  35.2692386  63.6277044   4.5483288  41.1907665  54.9487394
   3.8971267  41.7761745  54.5621408   5.3427650  41.7213860  55.0082432
   5.8548475  33.4425247  60.7867722   6.6411565  33.0244670  60.4358139
   6.1187180  34.3471339  60.9549370   6.0258553  38.8798097  55.4856378
   5.3904386  38.9532724  56.1977283   5.6955959  39.4691696  54.8075458
  11.2556903  33.3800480  61.6900700  11.9882074  32.8099697  61.9238530
  10.4996258  32.9922080  62.1307206   2.8733022  35.8027721  58.8864043
   2.5091229  35.2758342  59.5976964   3.7300138  35.4126190  58.7130528
   2.5138509  30.8317621  53.8825391   2.6812912  31.6997858  54.2495862
   2.3235678  30.9944903  52.9586680   5.2713842  39.2934600  65.5491221
   4.9714565  40.1959639  65.4407029   4.9264902  39.0266783  66.4012374
   8.6710986  31.8117140  63.2288659   7.7627864  31.7432549  62.9347420
   8.6198582  32.2889085  64.0570484   2.4927730  33.2875279  54.8672058
   2.3727355  33.7332329  55.7057538   1.7980318  33.6360596  54.3085596
   8.1912796  33.7596752  55.6952392   9.1030652  33.9924139  55.5200089
   7.6822443  34.3433796  55.1327471   6.7982379  38.7422570  63.0865973
   6.1691241  38.9068284  62.3842041   6.4108041  39.1564180  63.8576937
  10.6771610  39.6777008  60.4410337   9.9922649  40.0575909  59.8907370
  10.7615460  40.2872335  61.1742285   7.9322542  37.3236967  67.0405681
   8.1439437  37.9668727  66.3640062   7.8852290  36.4899284  66.5727611
   2.3510340  38.4796978  60.3516059   2.8148686  38.7584681  59.5620681
   2.0867139  37.5780423  60.1689149   1.2879226  34.6020131  57.1605624
   1.9903270  35.0541174  57.6279550   0.9559855  33.9603950  57.7885517
   9.0468370  40.2008923  65.2128038   9.8685814  39.7989110  64.9310720
   9.0430773  40.0977157  66.1644154  17.1374363  36.5447671  61.5613010
  16.3838071  35.9755069  61.4057014  17.2721904  36.5110335  62.5083644
   2.5272991  41.4161073  57.2367729   2.3918666  42.2612609  57.6652577
   3.0682804  41.6180351  56.4733663   5.8415737  34.9300246  54.2739057
   5.3262361  35.7004851  54.5127445   5.5693046  34.2565382  54.8972119
   3.4262848  29.7749947  59.3324296   2.5704445  29.3856797  59.1529935
   3.8389800  29.8541908  58.4724081  10.8150012  37.6832601  56.2092231
  10.0379454  37.3443760  55.7647393  11.4941493  37.6885224  55.5347196
   5.6302041  32.8027338  56.0998839   5.3252176  33.1173488  56.9508982
   6.5832483  32.8808758  56.1426172   4.0748472  38.9617562  57.7491793
   3.5469834  38.2270321  57.4365030   3.5735975  39.7392238  57.5031761
   9.0541318  37.1566582  62.8658839   8.3964993  37.8465844  62.9538968
   9.8581718  37.5463014  63.2092825   7.8646777  35.5110955  60.9162781
   8.3778659  36.1440947  61.4184490   8.5148001  34.9112150  60.5506141
   2.2201073  36.7797772  50.7526766   1.3128134  36.5487025  50.9517915
   2.7172105  35.9835391  50.9400747   5.1269151  45.4895279  53.6723452
   4.4530850  45.7926976  54.2808410   5.5134973  46.2924360  53.3228909
   4.3427608  32.9860410  63.1621121   3.4250169  33.2075357  63.0042809
   4.7587752  33.0606721  62.3032829   5.1262656  34.3851826  58.2923801
   5.8734475  34.8973223  57.9830923   5.3954245  34.0635879  59.1528195
   3.3989306  36.8810367  55.2750756   2.4900525  36.5969400  55.3723225
   3.4284390  37.3009445  54.4154063   8.6308573  40.4916956  59.0441923
   8.1770901  39.6507866  59.1007114   8.0002540  41.1278355  59.3816703
   7.5741493  31.4208942  60.2742591   6.8364250  30.9086329  60.6052833
   7.8268267  30.9809324  59.4625868   7.0741513  42.3293453  59.9791741
   7.3664487  42.8898510  59.2604107   7.5840133  42.6222014  60.7344901
   7.6753120  24.1985194  60.8684360   7.9811997  23.3382558  60.5810275
   8.4005725  24.7902815  60.6683354   1.9474200  34.4938987  61.3760551
   2.0022810  33.5412824  61.3003028   1.1365402  34.6498427  61.8601849
   3.0965394  38.4219111  52.6138834   2.6584824  37.7054969  52.1544472
   3.8375835  38.6495225  52.0523926   2.0375138  43.1073804  61.0685195
   1.9951317  43.3334650  60.1393727   2.9537837  42.8737179  61.2170996
  11.2138509  36.6976308  58.6715153  11.0756407  36.8877904  57.7436342
  10.8574727  37.4595690  59.1283204  11.2407888  38.7652835  63.6826424
  11.6744395  38.6728124  64.5309478  11.9539469  38.7410335  63.0446440
  12.1023438  38.8076535  66.2159310  12.2959328  39.7122346  66.4618585
  12.0024056  38.3483954  67.0497895   3.3260367  45.6574952  55.8870531
   3.5012122  45.1862995  56.7016154   2.6393155  46.2840718  56.1151792
   4.2817430  39.9347458  61.9333832   3.9467262  39.8948228  62.8291482
   3.7821375  39.2692174  61.4604242   7.2176621  37.2803492  52.2070892
   6.6005792  36.5550320  52.1103945   6.7493110  38.0412852  51.8637966
   8.8748160  39.9541984  68.0990652   7.9874939  39.6167906  68.2217051
   9.4446711  39.2225016  68.3359417   2.1939093  43.8515207  58.5754717
   1.4106615  44.3936887  58.6692941   2.8931839  44.3689186  58.9748958
   5.5035744  29.6609836  61.2188922   6.0004443  28.9079799  60.8989992
   4.7322725  29.6974153  60.6532131  13.3565501  35.3650202  62.8607214
  13.3455377  36.2474917  62.4901147  12.4882880  35.0121753  62.6661751
   6.5865524  38.4181523  58.7927345   5.6521803  38.5382986  58.6232050
   6.7642193  37.5153990  58.5287355   2.0870712  31.8027219  60.9460607
   1.7168500  31.2498260  61.6341512   2.5829805  31.1985353  60.3935607
   9.9738076  34.2598843  59.3277380  10.4398528  35.0926834  59.2537682
  10.4245576  33.7943824  60.0322638   8.0414307  40.6042664  56.3263532
   8.3174151  40.4899259  57.2357406   7.1718805  40.2060149  56.2875705
   7.7161197  34.8169322  65.8668175   7.0632647  35.0645229  65.2120628
   8.0941577  34.0033460  65.5330652   4.6768371  44.8529015  59.9696345
   4.8590765  44.0350671  60.4324098   5.5001357  45.0696707  59.5321235
   5.0110536  43.7797200  57.2311394   5.5398303  43.2689655  56.6181556
   5.2738756  43.4639730  58.0956927   5.6439940  44.8138036  63.5755510
   5.5191079  44.0127776  63.0666456   6.3019031  45.3084229  63.0869480
   7.7074848  42.6147056  65.2035060   6.7605184  42.4952407  65.1313387
   8.0557621  41.7269554  65.2861322   4.7121282  42.4099772  61.4039413
   4.5646244  41.4816479  61.5846983   5.5374775  42.4319863  60.9196488
   8.3155403  43.2328331  62.4904285   9.2401951  43.0271192  62.3528736
   8.1470707  42.9844732  63.3993627   4.7082796  30.2637610  56.3971530
   4.9246410  31.1462248  56.0960358   4.2276863  29.8723823  55.6677172
   8.1050720  43.7513998  57.8466377   8.2787597  43.1860421  57.0940229
   8.5979611  44.5514893  57.6645867   0.7115296  29.0940251  58.2910734
   0.8331207  28.1656897  58.4901622   0.4217339  29.1078937  57.3789049
  13.9590111  36.5150421  59.4656676  14.4021257  35.7657746  59.0675800
  13.0816621  36.5060558  59.0830408   9.0925892  43.0680763  54.9463275
   9.7876797  43.6887455  55.1650590   9.4349042  42.2176114  55.2215653
  10.9917315  40.5180468  56.4750606  11.5168639  40.8567741  55.7499926
  10.9039668  39.5827484  56.2913740  10.8009096  38.0005838  69.0934532
  10.8507101  37.8355846  70.0350055  10.6923020  37.1333097  68.7032413
  12.3027293  40.4202780  69.3376554  12.0112102  40.7832760  70.1740015
  11.6899425  39.7069788  69.1589886  13.5022976  37.9855659  61.8579124
  14.3369867  38.4245464  62.0216684  13.6382104  37.5094313  61.0387370
  10.5514482  35.5435394  67.8056612  11.0268603  35.7363041  66.9975463
   9.6280047  35.5994580  67.5599995   3.1840761  43.1742514  53.8538369
   2.6114728  43.7932701  53.4008840   3.7573554  43.7241876  54.3878291
   6.4038020  43.4579664  54.9846951   7.3368694  43.3925226  55.1879826
   6.3161233  44.2935931  54.5261484   9.0326037  42.7745535  51.9450898
   8.9539669  42.4405398  52.8386656   9.8535704  43.2667303  51.9442371
  11.7304228  35.6407274  65.1527217  11.6980548  34.7023275  65.3386901
  12.3404852  35.7191311  64.4193042   3.5687559  34.5103327  51.1954421
   4.5146664  34.3809535  51.2642839   3.1901804  33.7717989  51.6723849
  11.8798717  32.4318318  65.1985500  11.3637765  31.6476774  65.0115429
  12.7638665  32.1037034  65.3632020   9.5409444  26.1759333  61.1581313
   9.3434265  25.8674421  62.0424645  10.1509149  26.9020972  61.2879243
  17.5480778  36.7023281  64.2933254  18.2784167  36.4408569  64.8540957
  16.9387724  35.9652003  64.3335322  15.6296075  34.8431144  64.8907705
  14.9029239  34.7087108  64.2824197  15.2143362  35.1507972  65.6964423
   1.7530476  32.4353303  51.1309306   0.8461932  32.1386416  51.2072020
   2.0306457  32.1383122  50.2643593   3.3692542  26.9790193  57.2853548
   2.5593270  26.6337278  57.6608794   4.0576959  26.6697737  57.8741159
   5.2983090  26.0568240  58.9077844   5.8514129  26.4763693  59.5667867
   5.5353177  25.1303988  58.9500800   0.5229261  29.2940239  51.2721286
   1.3848425  29.6195137  51.5317103   0.7079605  28.5071735  50.7594351
   8.6761897  28.1668765  58.4156509   8.0960566  28.8253569  58.0334561
   8.4097830  27.3446110  58.0043926   7.1265464  27.5673823  60.6177829
   7.6265242  27.6790357  59.8092148   7.7701072  27.2634876  61.2578637
   7.4586775  30.3268856  57.4712857   6.5712630  30.6118506  57.2533052
   7.8740764  30.1662619  56.6240134  10.8101312  30.3515377  61.1867196
  11.5861702  30.8411829  61.4591813  10.0849446  30.7773431  61.6439066
  13.2473870  31.0642996  62.2441137  13.8418361  30.8238732  61.5334445
  13.3200454  30.3450126  62.8714673   6.6029989  40.0913530  51.5660877
   7.3065839  40.2963533  52.1818532   5.8792638  40.6590292  51.8309960
   7.4327799  35.8423391  57.6863147   7.3763001  36.2991943  56.8470779
   7.9856142  35.0814076  57.5085990  11.2432605  31.6313123  58.5113266
  10.9869539  31.2309759  59.3421474  10.6185473  32.3456917  58.3863406
  15.5544943  34.3709197  61.0184558  14.9944501  34.4402386  61.7916120
  14.9488446  34.1950181  60.2984054   8.5116686  40.5296059  53.6159337
   9.3462290  40.0977258  53.4336812   8.3501029  40.3578073  54.5436231
   8.1662578  37.0328173  54.9815676   8.1111382  36.8672444  54.0404120
   7.5408634  37.7404206  55.1377866   1.4758704  26.5336282  54.5600994
   1.4637374  27.4778122  54.7169265   2.3682126  26.3506427  54.2660456
  17.1400961  51.0465711  63.7114514  17.7779371  50.9272458  63.0077854
  17.0221804  51.9946554  63.7702466  13.9490668  50.9993139  63.6476038
  13.6109179  50.8834203  62.7596573  14.8180436  50.5984304  63.6277044
   9.8077483  52.8528615  59.6372929   9.2442348  52.7618552  58.8689217
   9.6929878  52.0328520  60.1175422  15.3877042  56.5199583  54.9487394
  14.7365022  57.1053663  54.5621408  16.1821405  57.0505778  55.0082432
   9.3132669  53.6088720  55.3474528  10.0863545  53.0617707  55.2087404
   9.6658068  54.4732969  55.5588990  11.6498947  49.7681386  52.9792978
  11.9024468  49.2462907  52.2176441  10.7123506  49.6047531  53.0819662
  16.6942230  48.7717164  60.7867722  17.4805319  48.3536588  60.4358139
  16.9580934  49.6763257  60.9549370  16.8652307  54.2090015  55.4856378
  16.2298140  54.2824641  56.1977283  16.5349714  54.7983614  54.8075458
  22.0950657  48.7092398  61.6900700  22.8275829  48.1391614  61.9238530
  21.3390013  48.3213998  62.1307206  11.3695236  51.6709492  55.1817353
  11.2531494  50.9954395  55.8498438  11.4797496  51.1841866  54.3649506
  13.7126777  51.1319639  58.8864043  13.3484984  50.6050260  59.5976964
  14.5693893  50.7418108  58.7130528  19.6176077  42.4213972  66.1495309
  19.2859402  43.2909383  65.9256524  19.0221691  42.1050256  66.8289339
  13.3532264  46.1609539  53.8825391  13.5206666  47.0289775  54.2495862
  13.1629433  46.3236820  52.9586680  16.1107597  54.6226518  65.5491221
  15.8108320  55.5251556  65.4407029  15.7658656  54.3558701  66.4012374
   9.5620078  51.0740315  61.5827926   8.6370575  50.9416529  61.7905618
   9.8104492  51.8534534  62.0797868  19.5104741  47.1409058  63.2288659
  18.6021618  47.0724466  62.9347420  19.4592336  47.6181003  64.0570484
  13.3321485  48.6167196  54.8672058  13.2121110  49.0624247  55.7057538
  12.6374073  48.9652514  54.3085596  21.3766387  45.3425496  65.0066533
  20.7340767  45.6358029  64.3606327  20.8721316  45.2278417  65.8119729
  19.0306551  49.0888669  55.6952392  19.9424407  49.3216056  55.5200089
  18.5216198  49.6725714  55.1327471  13.6678388  48.4485904  66.7047241
  14.5139584  48.8725318  66.8481890  13.6077026  47.7919528  67.3985805
  17.6376133  54.0714488  63.0865973  17.0084995  54.2360202  62.3842041
  17.2501795  54.4856097  63.8576937  21.5165365  55.0068926  60.4410337
  20.8316403  55.3867827  59.8907370  21.6009214  55.6164252  61.1742285
  16.8177834  46.1090272  68.3628415  16.5738766  46.8632333  67.8262691
  17.0937764  46.4875620  69.1975662  18.7716297  52.6528885  67.0405681
  18.9833192  53.2960645  66.3640062  18.7246045  51.8191201  66.5727611
  16.3742526  45.2646705  63.9442253  15.5127005  45.5627959  64.2358990
  16.4004960  45.4817104  63.0123285  13.1904095  53.8088896  60.3516059
  13.6542440  54.0876599  59.5620681  12.9260893  52.9072341  60.1689149
  12.1272981  49.9312048  57.1605624  12.8297024  50.3833092  57.6279550
  11.7953609  49.2895867  57.7885517  19.8862124  55.5300840  65.2128038
  20.7079568  55.1281027  64.9310720  19.8824527  55.4269074  66.1644154
   7.8213060  48.5540180  59.4206234   7.0244224  48.6658875  59.9389730
   7.5938653  48.8926832  58.5547124  27.9768118  51.8739589  61.5613010
  27.2231826  51.3046987  61.4057014  28.1115659  51.8402253  62.5083644
  13.3666746  56.7452991  57.2367729  13.2312420  57.5904527  57.6652577
  13.9076558  56.9472269  56.4733663   6.8196143  54.2628429  57.8095654
   7.3320664  55.0571679  57.9601219   7.4718856  53.5654719  57.7429255
  16.7159209  40.2683553  65.7666622  16.3723479  41.1585195  65.6905733
  17.0838172  40.0785211  64.9036207   4.7845060  52.5917083  58.5855224
   5.6220282  53.0014092  58.3688932   4.9623327  51.6516525  58.5555418
  16.6809492  50.2592164  54.2739057  16.1656115  51.0296769  54.5127445
  16.4086800  49.5857300  54.8972119  14.2656603  45.1041865  59.3324296
  13.4098199  44.7148715  59.1529935  14.6783555  45.1833826  58.4724081
  15.7955750  42.6388208  63.7315856  15.2920545  42.6018343  62.9183661
  16.0886356  43.5480951  63.7912512  12.0398635  42.7226938  62.7382037
  12.9051632  42.5269746  62.3787927  12.1076144  42.4937290  63.6651394
  21.6543766  53.0124519  56.2092231  20.8773209  52.6735678  55.7647393
  22.3335247  53.0177142  55.5347196  16.4695795  48.1319256  56.0998839
  16.1645931  48.4465405  56.9508982  17.4226237  48.2100676  56.1426172
  14.9142227  54.2909479  57.7491793  14.3863588  53.5562239  57.4365030
  14.4129730  55.0684156  57.5031761  19.8935073  52.4858500  62.8658839
  19.2358747  53.1757761  62.9538968  20.6975472  52.8754932  63.2092825
   9.6460955  44.9529146  60.1098404  10.2204706  44.7304327  59.3771597
  10.2331937  45.0217840  60.8627005  18.7040532  50.8402873  60.9162781
  19.2172413  51.4732864  61.4184490  19.3541756  50.2404068  60.5506141
   9.9730542  46.9833607  54.1294289   9.1367854  47.3208293  54.4503564
   9.8335311  46.8482586  53.1921426  11.9483622  41.8270395  58.8373474
  11.2948035  41.5119412  58.2130088  11.9064096  41.2046135  59.5633296
  13.0594827  52.1089690  50.7526766  12.1521889  51.8778943  50.9517915
  13.5565859  51.3127309  50.9400747  15.9662906  60.8187197  53.6723452
  15.2924605  61.1218894  54.2808410  16.3528728  61.6216277  53.3228909
  15.1821363  48.3152328  63.1621121  14.2643924  48.5367275  63.0042809
  15.5981506  48.3898639  62.3032829  15.9656410  49.7143744  58.2923801
  16.7128229  50.2265141  57.9830923  16.2348000  49.3927797  59.1528195
  14.2383061  52.2102285  55.2750756  13.3294280  51.9261317  55.3723225
  14.2678144  52.6301363  54.4154063  19.4702328  55.8208874  59.0441923
  19.0164655  54.9799784  59.1007114  18.8396295  56.4570272  59.3816703
  18.4135248  46.7500860  60.2742591  17.6758004  46.2378246  60.6052833
  18.6662021  46.3101242  59.4625868  17.9135267  57.6585371  59.9791741
  18.2058242  58.2190428  59.2604107  18.4233888  57.9513932  60.7344901
  18.5146875  39.5277112  60.8684360  18.8205752  38.6674475  60.5810275
  19.2399480  40.1194732  60.6683354  12.7867955  49.8230905  61.3760551
  12.8416564  48.8704742  61.3003028  11.9759157  49.9790344  61.8601849
  13.9359148  53.7511028  52.6138834  13.4978578  53.0346887  52.1544472
  14.6769589  53.9787143  52.0523926  10.7260314  48.4407965  59.1350930
   9.9128180  48.7402135  59.5416122  11.2219309  48.0463654  59.8525412
  12.8768892  58.4365722  61.0685195  12.8345071  58.6626568  60.1393727
  13.7931591  58.2029096  61.2170996  16.3234526  48.9049789  67.9665824
  16.6783914  49.1321262  68.8260290  16.9706657  49.2368166  67.3443079
  22.0532263  52.0268225  58.6715153  21.9150162  52.2169821  57.7436342
  21.6968482  52.7887608  59.1283204  10.2174389  46.0126320  64.7512165
  10.8573769  45.8715079  64.0535128   9.3851920  45.7260834  64.3750767
  22.0801643  54.0944752  63.6826424  22.5138149  54.0020041  64.5309478
  22.7933223  54.0702253  63.0446440  10.9934693  55.3128751  60.8647157
  11.7875292  54.8179071  60.6629732  10.2826386  54.7846614  60.5014863
   7.3017457  49.4571833  56.9406910   6.3715045  49.3956288  57.1576872
   7.3974929  48.9347785  56.1443551   7.2203006  45.9826645  59.5285152
   7.4809823  46.8971979  59.4194312   8.0420178  45.5151088  59.6781765
  22.9417192  54.1368453  66.2159310  23.1353082  55.0414263  66.4618585
  22.8417810  53.6775872  67.0497895  14.5953503  44.0226343  68.7149637
  13.9481418  44.7216293  68.6214114  15.3654518  44.4562487  69.0825885
  14.7717637  51.8607108  66.7746457  15.7009697  52.0118268  66.6015424
  14.3508667  51.9491129  65.9195103  14.1654121  60.9866869  55.8870531
  14.3405877  60.5154912  56.7016154  13.4786909  61.6132635  56.1151792
  15.1211184  55.2639375  61.9333832  14.7861017  55.2240145  62.8291482
  14.6215130  54.5984091  61.4604242  18.0570376  52.6095410  52.2070892
  17.4399547  51.8842238  52.1103945  17.5886864  53.3704770  51.8637966
   9.8468922  46.8280834  51.3292196   8.9698388  46.7069635  50.9654443
  10.3226675  46.0366912  51.0771085  19.7141915  55.2833902  68.0990652
  18.8268694  54.9459824  68.2217051  20.2840466  54.5516933  68.3359417
  13.0332848  59.1807124  58.5754717  12.2500370  59.7228805  58.6692941
  13.7325593  59.6981104  58.9748958  16.3429498  44.9901754  61.2188922
  16.8398198  44.2371716  60.8989992  15.5716480  45.0266071  60.6532131
  24.1959255  50.6942119  62.8607214  24.1849132  51.5766835  62.4901147
  23.3276635  50.3413670  62.6661751  17.4259279  53.7473441  58.7927345
  16.4915557  53.8674904  58.6232050  17.6035947  52.8445908  58.5287355
  12.9264467  47.1319137  60.9460607  12.5562254  46.5790177  61.6341512
  13.4223559  46.5277270  60.3935607  20.8131830  49.5890760  59.3277380
  21.2792282  50.4218752  59.2537682  21.2639331  49.1235742  60.0322638
  18.8808061  55.9334582  56.3263532  19.1567905  55.8191176  57.2357406
  18.0112560  55.5352067  56.2875705  18.7848493  41.9571347  63.3668281
  17.8711573  42.1875574  63.5350488  19.2141594  42.0409792  64.2182313
  18.5554951  50.1461239  65.8668175  17.9026402  50.3937147  65.2120628
  18.9335331  49.3325378  65.5330652  15.5162125  60.1820933  59.9696345
  15.6984520  59.3642589  60.4324098  16.3395111  60.3988625  59.5321235
  15.8504291  59.1089118  57.2311394  16.3792057  58.5981572  56.6181556
  16.1132510  58.7931648  58.0956927   4.5747616  48.4222689  56.7705102
   4.8701057  47.5133368  56.7172156   3.6735651  48.4010429  56.4486104
  16.4833694  60.1429953  63.5755510  16.3584834  59.3419693  63.0666456
  17.1412786  60.6376147  63.0869480   8.1041863  46.4978686  62.7532650
   7.3828448  47.1114654  62.6140124   8.8935118  47.0336451  62.6749296
  18.5468603  57.9438974  65.2035060  17.5998938  57.8244325  65.1313387
  18.8951376  57.0561472  65.2861322   6.3035457  46.1036787  56.8944427
   5.9748163  45.2234166  56.7119533   6.6574828  46.0484456  57.7820816
  15.5515036  57.7391690  61.4039413  15.4039999  56.8108397  61.5846983
  16.3768530  57.7611780  60.9196488   9.4177280  46.3909757  57.2619905
   9.7573353  46.9195678  56.5398513   9.8649401  46.7290163  58.0378471
  19.1549158  58.5620248  62.4904285  20.0795705  58.3563110  62.3528736
  18.9864461  58.3136650  63.3993627  12.1120721  44.7746808  66.7122973
  11.7717542  43.9754621  67.1143653  11.4059728  45.0748518  66.1399806
  12.7637193  41.8596120  65.1650296  13.5863262  41.3856598  65.0429186
  13.0075257  42.6386604  65.6648982  11.4045428  44.8884378  55.4613197
  12.1253790  45.2665631  54.9576914  10.7810732  45.6073255  55.5648175
  15.5476550  45.5929527  56.3971530  15.7640165  46.4754165  56.0960358
  15.0670618  45.2015741  55.6677172  10.2875772  48.5515241  62.9742274
  10.1420353  48.8655544  63.8666556   9.8100975  49.1700141  62.4213173
  12.1472155  45.5417789  63.0223164  12.1333723  44.6458882  62.6855462
  12.8644583  45.5488452  63.6561450  13.9998285  45.9755129  65.0676291
  13.7416063  46.8972199  65.0660622  13.4683326  45.5785563  65.7576755
  18.9444474  59.0805916  57.8466377  19.1181352  58.5152338  57.0940229
  19.4373365  59.8806811  57.6645867  11.5509051  44.4232169  58.2910734
  11.6724962  43.4948815  58.4901622  11.2611093  44.4370855  57.3789049
  14.4200241  42.1087079  61.4277454  14.4421938  42.1726412  60.4729433
  14.8368300  41.2691588  61.6217960  24.7983865  51.8442339  59.4656676
  25.2415011  51.0949664  59.0675800  23.9210376  51.8352475  59.0830408
  19.9319647  58.3972680  54.9463275  20.6270551  59.0179373  55.1650590
  20.2742797  57.5468032  55.2215653  21.8311070  55.8472386  56.4750606
  22.3562394  56.1859659  55.7499926  21.7433422  54.9119401  56.2913740
  21.6402851  53.3297756  69.0934532  21.6900856  53.1647763  70.0350055
  21.5316774  52.4625015  68.7032413  10.5239110  56.0086302  56.3826621
  10.6727230  56.6921766  55.7293294  11.3305553  55.9891392  56.8976077
  18.9306613  49.3128684  70.4093839  19.8316476  49.1735149  70.1177837
  19.0054588  49.4783139  71.3492016  23.1421048  55.7494697  69.3376554
  22.8505856  56.1124678  70.1740015  22.5293179  55.0361706  69.1589886
  24.3416730  53.3147577  61.8579124  25.1763621  53.7537381  62.0216684
  24.4775859  52.8386230  61.0387370  21.3908236  50.8727312  67.8056612
  21.8662358  51.0654958  66.9975463  20.4673801  50.9286498  67.5599995
   8.2791743  52.0351479  57.3887690   8.0337785  51.1313809  57.5867900
   8.4487657  52.0368630  56.4467168  15.9688452  42.9075156  66.7712446
  16.4870396  43.6436183  66.4458934  15.6143585  43.2139149  67.6059205
   7.5487390  47.7679837  54.8873852   6.8556635  47.8424192  54.2313887
   7.3039142  47.0040180  55.4095368  16.2201047  39.3275438  62.2913342
  16.5002800  38.6598627  62.9173769  17.0051654  39.5204534  61.7788006
  14.0234515  58.5034432  53.8538369  13.4508482  59.1224619  53.4008840
  14.5967309  59.0533794  54.3878291  20.0909905  47.7493072  66.0384917
  21.0427328  47.8491170  66.0597141  19.9213355  46.9571341  66.5483002
  18.1124284  44.8348655  66.2244318  17.5174217  45.1153668  65.5290807
  17.8273981  45.3242556  66.9961059  17.2431775  58.7871582  54.9846951
  18.1762448  58.7217144  55.1879826  17.1554988  59.6227849  54.5261484
  19.8719792  58.1037452  51.9450898  19.7933423  57.7697316  52.8386656
  20.6929458  58.5959220  51.9442371  22.5697983  50.9699192  65.1527217
  22.5374303  50.0315193  65.3386901  23.1798606  51.0483229  64.4193042
  14.4081314  49.8395245  51.1954421  15.3540418  49.7101453  51.2642839
  14.0295559  49.1009907  51.6723849  22.7192471  47.7610235  65.1985500
  22.2031520  46.9768692  65.0115429  23.6032420  47.4328952  65.3632020
  20.3803198  41.5051251  61.1581313  20.1828019  41.1966339  62.0424645
  20.9902904  42.2312890  61.2879243  28.3874533  52.0315199  64.2933254
  29.1177921  51.7700487  64.8540957  27.7781478  51.2943921  64.3335322
  26.4689830  50.1723061  64.8907705  25.7422993  50.0379026  64.2824197
  26.0537117  50.4799890  65.6964423  12.5924231  47.7645221  51.1309306
  11.6855686  47.4678334  51.2072020  12.8700212  47.4675039  50.2643593
  14.2086297  42.3082111  57.2853548  13.3987025  41.9629196  57.6608794
  14.8970713  41.9989655  57.8741159  16.1376845  41.3860158  58.9077844
  16.6907883  41.8055611  59.5667867  16.3746931  40.4595906  58.9500800
  11.3623015  44.6232156  51.2721286  12.2242179  44.9487055  51.5317103
  11.5473360  43.8363652  50.7594351  19.5155652  43.4960683  58.4156509
  18.9354321  44.1545487  58.0334561  19.2491585  42.6738027  58.0043926
  17.9659218  42.8965741  60.6177829  18.4658997  43.0082275  59.8092148
  18.6094826  42.5926793  61.2578637  18.2980530  45.6560773  57.4712857
  17.4106385  45.9410424  57.2533052  18.7134519  45.4954537  56.6240134
  21.6495066  45.6807294  61.1867196  22.4255456  46.1703747  61.4591813
  20.9243200  46.1065348  61.6439066  24.0867625  46.3934913  62.2441137
  24.6812115  46.1530649  61.5334445  24.1594208  45.6742044  62.8714673
  17.4423743  55.4205448  51.5660877  18.1459594  55.6255450  52.1818532
  16.7186392  55.9882210  51.8309960  18.2721554  51.1715309  57.6863147
  18.2156755  51.6283861  56.8470779  18.8249896  50.4105994  57.5085990
  22.0826360  46.9605041  58.5113266  21.8263294  46.5601677  59.3421474
  21.4579228  47.6748835  58.3863406  26.3938697  49.7001114  61.0184558
  25.8338255  49.7694304  61.7916120  25.7882201  49.5242099  60.2984054
  19.3510441  55.8587977  53.6159337  20.1856045  55.4269176  53.4336812
  19.1894784  55.6869991  54.5436231  19.0056333  52.3620090  54.9815676
  18.9505137  52.1964362  54.0404120  18.3802388  53.0696123  55.1377866
  12.3152458  41.8628199  54.5600994  12.3031128  42.8070039  54.7169265
  13.2075880  41.6798345  54.2660456  16.1304578  38.4570976  58.8146931
  15.3636974  37.9029463  58.9603614  16.5415283  38.5292845  59.6761083
  27.9794716  66.3757628  63.7114514  28.6173126  66.2564376  63.0077854
  27.8615559  67.3238472  63.7702466  24.7884422  66.3285056  63.6476038
  24.4502934  66.2126121  62.7596573  25.6574190  65.9276221  63.6277044
  22.4892702  65.0973304  52.9792978  22.7418222  64.5754825  52.2176441
  21.5517261  64.9339449  53.0819662  27.5335984  64.1009082  60.7867722
  28.3199074  63.6828505  60.4358139  27.7974689  65.0055174  60.9549370
  27.7046062  69.5381932  55.4856378  27.0691895  69.6116559  56.1977283
  27.3743468  70.1275531  54.8075458  32.9344411  64.0384315  61.6900700
  33.6669583  63.4683532  61.9238530  32.1783767  63.6505916  62.1307206
  22.2088990  67.0001410  55.1817353  22.0925248  66.3246313  55.8498438
  22.3191250  66.5133784  54.3649506  24.5520531  66.4611557  58.8864043
  24.1878738  65.9342178  59.5976964  25.4087647  66.0710026  58.7130528
  30.4569832  57.7505889  66.1495309  30.1253157  58.6201300  65.9256524
  29.8615445  57.4342173  66.8289339  24.1926018  61.4901456  53.8825391
  24.3600421  62.3581693  54.2495862  24.0023187  61.6528738  52.9586680
  20.4013833  66.4032232  61.5827926  19.4764329  66.2708446  61.7905618
  20.6498246  67.1826451  62.0797868  30.3498495  62.4700976  63.2288659
  29.4415373  62.4016384  62.9347420  30.2986091  62.9472920  64.0570484
  24.1715239  63.9459114  54.8672058  24.0514864  64.3916165  55.7057538
  23.4767827  64.2944432  54.3085596  32.2160142  60.6717414  65.0066533
  31.5734522  60.9649947  64.3606327  31.7115070  60.5570334  65.8119729
  29.8700305  64.4180587  55.6952392  30.7818161  64.6507974  55.5200089
  29.3609952  65.0017631  55.1327471  24.5072143  63.7777822  66.7047241
  25.3533338  64.2017235  66.8481890  24.4470781  63.1211446  67.3985805
  27.2136280  60.5938623  63.9442253  26.3520759  60.8919877  64.2358990
  27.2398715  60.8109022  63.0123285  24.0297849  69.1380814  60.3516059
  24.4936195  69.4168517  59.5620681  23.7654648  68.2364258  60.1689149
  22.9666735  65.2603966  57.1605624  23.6690779  65.7125010  57.6279550
  22.6347364  64.6187785  57.7885517  18.6606815  63.8832098  59.4206234
  17.8637978  63.9950792  59.9389730  18.4332407  64.2218750  58.5547124
  27.5552964  55.5975471  65.7666622  27.2117233  56.4877112  65.6905733
  27.9231926  55.4077128  64.9036207  27.5203246  65.5884082  54.2739057
  27.0049870  66.3588686  54.5127445  27.2480555  64.9149218  54.8972119
  25.1050357  60.4333782  59.3324296  24.2491954  60.0440633  59.1529935
  25.5177309  60.5125743  58.4724081  26.6349504  57.9680126  63.7315856
  26.1314300  57.9310261  62.9183661  26.9280111  58.8772868  63.7912512
  22.8792390  58.0518855  62.7382037  23.7445387  57.8561664  62.3787927
  22.9469899  57.8229207  63.6651394  32.4937521  68.3416436  56.2092231
  31.7166963  68.0027596  55.7647393  33.1729001  68.3469059  55.5347196
  27.3089550  63.4611174  56.0998839  27.0039685  63.7757323  56.9508982
  28.2619992  63.5392594  56.1426172  20.4854709  60.2821063  60.1098404
  21.0598461  60.0596245  59.3771597  21.0725691  60.3509758  60.8627005
  29.5434286  66.1694790  60.9162781  30.0566168  66.8024782  61.4184490
  30.1935510  65.5695986  60.5506141  20.8124296  62.3125524  54.1294289
  19.9761608  62.6500211  54.4503564  20.6729066  62.1774504  53.1921426
  22.7877377  57.1562312  58.8373474  22.1341789  56.8411329  58.2130088
  22.7457851  56.5338053  59.5633296  23.8988582  67.4381607  50.7526766
  22.9915643  67.2070861  50.9517915  24.3959614  66.6419227  50.9400747
  26.0215117  63.6444246  63.1621121  25.1037678  63.8659193  63.0042809
  26.4375261  63.7190556  62.3032829  26.8050165  65.0435661  58.2923801
  27.5521984  65.5557059  57.9830923  27.0741754  64.7219714  59.1528195
  25.0776815  67.5394202  55.2750756  24.1688034  67.2553235  55.3723225
  25.1071899  67.9593281  54.4154063  29.2529002  62.0792778  60.2742591
  28.5151759  61.5670164  60.6052833  29.5055776  61.6393159  59.4625868
  29.3540629  54.8569030  60.8684360  29.6599506  53.9966393  60.5810275
  30.0793234  55.4486650  60.6683354  23.6261709  65.1522823  61.3760551
  23.6810319  64.1996659  61.3003028  22.8152911  65.3082262  61.8601849
  24.7752903  69.0802946  52.6138834  24.3372333  68.3638805  52.1544472
  25.5163344  69.3079061  52.0523926  21.5654069  63.7699883  59.1350930
  20.7521935  64.0694053  59.5416122  22.0613063  63.3755571  59.8525412
  32.8926018  67.3560143  58.6715153  32.7543916  67.5461739  57.7436342
  32.5362236  68.1179526  59.1283204  21.0568144  61.3418238  64.7512165
  21.6967523  61.2006997  64.0535128  20.2245674  61.0552751  64.3750767
  18.1411211  64.7863750  56.9406910  17.2108799  64.7248206  57.1576872
  18.2368683  64.2639703  56.1443551  18.0596760  61.3118563  59.5285152
  18.3203577  62.2263896  59.4194312  18.8813932  60.8443006  59.6781765
  25.4347257  59.3518261  68.7149637  24.7875173  60.0508211  68.6214114
  26.2048273  59.7854405  69.0825885  28.8964130  67.9387328  52.2070892
  28.2793301  67.2134156  52.1103945  28.4280619  68.6996688  51.8637966
  20.6862676  62.1572752  51.3292196  19.8092143  62.0361553  50.9654443
  21.1620429  61.3658830  51.0771085  27.1823252  60.3193672  61.2188922
  27.6791952  59.5663634  60.8989992  26.4110234  60.3557988  60.6532131
  28.2653033  69.0765359  58.7927345  27.3309312  69.1966821  58.6232050
  28.4429702  68.1737826  58.5287355  23.7658221  62.4611055  60.9460607
  23.3956009  61.9082095  61.6341512  24.2617314  61.8569188  60.3935607
  31.6525585  64.9182678  59.3277380  32.1186037  65.7510670  59.2537682
  32.1033085  64.4527660  60.0322638  29.7201816  71.2626499  56.3263532
  29.9961660  71.1483094  57.2357406  28.8506314  70.8643984  56.2875705
  29.6242247  57.2863265  63.3668281  28.7105327  57.5167492  63.5350488
  30.0535349  57.3701709  64.2182313  15.4141370  63.7514607  56.7705102
  15.7094811  62.8425285  56.7172156  14.5129406  63.7302346  56.4486104
  18.9435617  61.8270604  62.7532650  18.2222203  62.4406571  62.6140124
  19.7328873  62.3628368  62.6749296  17.1429212  61.4328705  56.8944427
  16.8141918  60.5526084  56.7119533  17.4968582  61.3776373  57.7820816
  20.2571035  61.7201675  57.2619905  20.5967107  62.2487596  56.5398513
  20.7043155  62.0582081  58.0378471  22.9514476  60.1038725  66.7122973
  22.6111296  59.3046538  67.1143653  22.2453482  60.4040436  66.1399806
  23.6030948  57.1888038  65.1650296  24.4257017  56.7148516  65.0429186
  23.8469011  57.9678521  65.6648982  22.2439182  60.2176296  55.4613197
  22.9647545  60.5957549  54.9576914  21.6204486  60.9365173  55.5648175
  26.3870305  60.9221445  56.3971530  26.6033919  61.8046083  56.0960358
  25.9064372  60.5307658  55.6677172  21.1269526  63.8807158  62.9742274
  20.9814107  64.1947461  63.8666556  20.6494730  64.4992059  62.4213173
  22.9865909  60.8709706  63.0223164  22.9727478  59.9750800  62.6855462
  23.7038337  60.8780370  63.6561450  24.8392040  61.3047046  65.0676291
  24.5809818  62.2264117  65.0660622  24.3077080  60.9077481  65.7576755
  22.3902805  59.7524087  58.2910734  22.5118716  58.8240733  58.4901622
  22.1004848  59.7662773  57.3789049  25.2593996  57.4378997  61.4277454
  25.2815692  57.5018330  60.4729433  25.6762055  56.5983506  61.6217960
  35.6377620  67.1734257  59.4656676  36.0808766  66.4241582  59.0675800
  34.7604130  67.1644393  59.0830408  32.6704824  71.1764304  56.4750606
  33.1956148  71.5151576  55.7499926  32.5827177  70.2411319  56.2913740
  19.1185497  67.3643397  57.3887690  18.8731539  66.4605727  57.5867900
  19.2881412  67.3660547  56.4467168  26.8082207  58.2367073  66.7712446
  27.3264151  58.9728100  66.4458934  26.4537340  58.5431067  67.6059205
  18.3881145  63.0971754  54.8873852  17.6950390  63.1716109  54.2313887
  18.1432897  62.3332098  55.4095368  27.0594801  54.6567356  62.2913342
  27.3396555  53.9890545  62.9173769  27.8445408  54.8496451  61.7788006
  28.9518039  60.1640573  66.2244318  28.3567971  60.4445586  65.5290807
  28.6667736  60.6534474  66.9961059  25.2475068  65.1687162  51.1954421
  26.1934173  65.0393371  51.2642839  24.8689313  64.4301824  51.6723849
  31.2196953  56.8343168  61.1581313  31.0221774  56.5258257  62.0424645
  31.8296658  57.5604807  61.2879243  23.4317985  63.0937139  51.1309306
  22.5249441  62.7970252  51.2072020  23.7093966  62.7966957  50.2643593
  25.0480051  57.6374029  57.2853548  24.2380779  57.2921114  57.6608794
  25.7364468  57.3281572  57.8741159  26.9770599  56.7152075  58.9077844
  27.5301638  57.1347529  59.5667867  27.2140686  55.7887823  58.9500800
  22.2016770  59.9524074  51.2721286  23.0635934  60.2778972  51.5317103
  22.3867114  59.1655570  50.7594351  30.3549406  58.8252601  58.4156509
  29.7748075  59.4837405  58.0334561  30.0885339  58.0029945  58.0043926
  28.8052973  58.2257658  60.6177829  29.3052751  58.3374193  59.8092148
  29.4488581  57.9218711  61.2578637  29.1374284  60.9852691  57.4712857
  28.2500139  61.2702342  57.2533052  29.5528273  60.8246454  56.6240134
  32.4888821  61.0099212  61.1867196  33.2649211  61.4995664  61.4591813
  31.7636955  61.4357266  61.6439066  34.9261379  61.7226831  62.2441137
  35.5205870  61.4822567  61.5334445  34.9987963  61.0033962  62.8714673
  29.1115308  66.5007227  57.6863147  29.0550510  66.9575778  56.8470779
  29.6643651  65.7397911  57.5085990  32.9220114  62.2896959  58.5113266
  32.6657048  61.8893594  59.3421474  32.2972982  63.0040753  58.3863406
  37.2332452  65.0293032  61.0184558  36.6732010  65.0986221  61.7916120
  36.6275955  64.8534017  60.2984054  30.1904195  71.1879895  53.6159337
  31.0249799  70.7561093  53.4336812  30.0288538  71.0161908  54.5436231
  29.8450087  67.6912008  54.9815676  29.7898891  67.5256280  54.0404120
  29.2196143  68.3988041  55.1377866  23.1546213  57.1920117  54.5600994
  23.1424883  58.1361957  54.7169265  24.0469635  57.0090262  54.2660456
  26.9698332  53.7862894  58.8146931  26.2030728  53.2321380  58.9603614
  27.3809037  53.8584762  59.6761083   6.3007208  12.7235915  50.4359820
   6.9385618  12.6042663  49.7323160   6.1828051  13.6716759  50.4947772
   3.1096914  12.6763344  50.3721345   2.7715426  12.5604408  49.4841880
   3.9786683  12.2754509  50.3522351   4.5483289  18.1969788  41.6732701
   3.8971269  18.7823868  41.2866715   5.3427652  18.7275983  41.7327738
   5.8548477  10.4487369  47.5113028   6.6411566  10.0306792  47.1603445
   6.1187181  11.3533461  47.6794677   6.0258554  15.8860220  42.2101685
   5.3904387  15.9594846  42.9222590   5.6955960  16.4753818  41.5320764
  11.2556904  10.3862602  48.4146007  11.9882076   9.8161819  48.6483836
  10.4996259   9.9984203  48.8552512   2.8733023  12.8089844  45.6109349
   2.5091231  12.2820465  46.3222271   3.7300139  12.4188313  45.4375835
   5.2713844  16.2996723  52.2736528   4.9714567  17.2021761  52.1652335
   4.9264903  16.0328906  53.1257681   8.6710987   8.8179263  49.9533965
   7.7627865   8.7494671  49.6592726   8.6198583   9.2951208  50.7815791
   2.4927731  10.2937401  41.5917365   2.3727357  10.7394452  42.4302845
   1.7980320  10.6422719  41.0330903   8.1912798  10.7658874  42.4197699
   9.1030654  10.9986261  42.2445396   7.6822445  11.3495919  41.8572777
   6.7982380  15.7484693  49.8111280   6.1691242  15.9130407  49.1087348
   6.4108042  16.1626302  50.5822244  10.6771612  16.6839131  47.1655644
   9.9922650  17.0638032  46.6152677  10.7615461  17.2934457  47.8987592
   7.9322543  14.3299090  53.7650987   8.1439439  14.9730850  53.0885368
   7.8852292  13.4961406  53.2972917   2.3510342  15.4859101  47.0761365
   2.8148687  15.7646804  46.2865988   2.0867140  14.5842545  46.8934456
   1.2879228  11.6082253  43.8850930   1.9903271  12.0603297  44.3524857
   0.9559856  10.9666072  44.5130823   9.0468371  17.2071045  51.9373345
   9.8685815  16.8051232  51.6556026   9.0430774  17.1039279  52.8889460
  17.1374364  13.5509794  48.2858316  16.3838073  12.9817192  48.1302321
  17.2721906  13.5172458  49.2328951   2.5272992  18.4223196  43.9613035
   2.3918667  19.2674732  44.3897883   3.0682805  18.6242474  43.1978969
   6.2522707  19.3249562  56.1194779   6.2341182  20.1458443  55.6275048
   7.1742627  19.2003638  56.3444920   5.8415739  11.9362369  40.9984364
   5.3262362  12.7066974  41.2372751   5.5693047  11.2627505  41.6217426
  10.8150013  14.6894724  42.9337538  10.0379456  14.3505883  42.4892700
  11.4941494  14.6947347  42.2592503   5.6302042   9.8089461  42.8244145
   5.3252177  10.1235610  43.6754288   6.5832484   9.8870881  42.8671478
   4.0748474  15.9679684  44.4737099   3.5469835  15.2332444  44.1610337
   3.5735976  16.7454361  44.2277068   9.0541320  14.1628705  49.5904146
   8.3964994  14.8527966  49.6784274   9.8581719  14.5525137  49.9338132
   7.8646778  12.5173077  47.6408087   8.3778660  13.1503069  48.1429797
   8.5148002  11.9174273  47.2751447   2.2201074  13.7859895  37.4772072
   1.3128136  13.5549148  37.6763221   2.7172106  12.9897514  37.6646054
   5.1269153  22.4957402  40.3968758   4.4530851  22.7989099  41.0053716
   5.5134975  23.2986482  40.0474215   4.3427609   9.9922533  49.8866428
   3.4250171  10.2137480  49.7288116   4.7587753  10.0668844  49.0278135
   5.1262657  11.3913949  45.0169108   5.8734476  11.9035346  44.7076230
   5.3954247  11.0698001  45.8773502   3.3989307  13.8872489  41.9996062
   2.4900527  13.6031522  42.0968532   3.4284391  14.3071568  41.1399369
   8.6308575  17.4979079  45.7687230   8.1770902  16.6569989  45.8252420
   8.0002541  18.1340477  46.1062010   7.5741494   8.4271065  46.9987897
   6.8364251   7.9148451  47.3298140   7.8268268   7.9871447  46.1871174
   7.0741514  19.3355576  46.7037048   7.3664488  19.8960633  45.9849414
   7.5840135  19.6284137  47.4590207   1.9474201  11.5001110  48.1005858
   2.0022811  10.5474946  48.0248334   1.1365403  11.6560549  48.5847156
   3.0965395  15.4281233  39.3384141   2.6584825  14.7117092  38.8789778
   3.8375836  15.6557348  38.7769232   2.0375139  20.1135927  47.7930501
   1.9951318  20.3396773  46.8639033   2.9537838  19.8799301  47.9416302
  11.2138510  13.7038430  45.3960459  11.0756408  13.8940026  44.4681649
  10.8574729  14.4657813  45.8528511  11.2407889  15.7714957  50.4071731
  11.6744396  15.6790246  51.2554785  11.9539470  15.7472458  49.7691747
   4.9735784  19.3717051  51.9404832   5.0272807  19.9407988  52.7082547
   4.1050566  19.5418936  51.5758869  12.1023439  15.8138658  52.9404616
  12.2959329  16.7184468  53.1863891  12.0024057  15.3546077  53.7743201
   2.7312216  17.5627978  51.2690301   2.5923302  17.1946762  52.1416239
   1.9426812  18.0775617  51.0974259   3.3260368  22.6637074  42.6115838
   3.5012124  22.1925117  43.4261460   2.6393156  23.2902840  42.8397098
   4.2817431  16.9409580  48.6579139   3.9467264  16.9010350  49.5536789
   3.7821377  16.2754296  48.1849549   7.2176623  14.2865615  38.9316199
   6.6005793  13.5612443  38.8349251   6.7493111  15.0474975  38.5883273
   8.8730754  18.9964523  56.5921979   8.8143301  18.3123743  55.9252562
   9.2750273  19.7383513  56.1402605   8.8748162  16.9604107  54.8235959
   7.9874940  16.6230029  54.9462357   9.4446713  16.2287138  55.0604724
   2.4049315  21.6205559  51.7897202   2.3319487  22.4260531  52.3016506
   1.9626708  21.8197525  50.9645223   2.1939095  20.8577329  45.3000023
   1.4106617  21.3999010  45.3938248   2.8931840  21.3751309  45.6994264
  13.3565502  12.3712324  49.5852520  13.3455378  13.2537040  49.2146453
  12.4882882  12.0183875  49.3907057   4.8647999  21.5192393  53.9455360
   5.5775971  22.1539858  53.8731262   4.3738027  21.6156259  53.1295362
   6.5865525  15.4243646  45.5172652   5.6521804  15.5445109  45.3477356
   6.7642194  14.5216113  45.2532662   9.9738077  11.2660965  46.0522686
  10.4398529  12.0988957  45.9782989  10.4245577  10.8005947  46.7567945
   8.0414308  17.6104787  43.0508838   8.3174152  17.4961381  43.9602712
   7.1718807  17.2122272  43.0121011   7.7161198  11.8231444  52.5913482
   7.0632648  12.0707352  51.9365934   8.0941578  11.0095583  52.2575959
   4.6768372  21.8591138  46.6941652   4.8590766  21.0412793  47.1569404
   5.5001358  22.0758830  46.2566542   5.0110537  20.7859323  43.9556700
   5.5398304  20.2751777  43.3426862   5.2738757  20.4701853  44.8202233
   2.5071554  23.8718183  53.3137135   3.0589862  24.0349804  54.0786220
   2.8477747  24.4622621  52.6417160   5.6439941  21.8200158  50.3000817
   5.5191081  21.0189898  49.7911762   6.3019032  22.3146352  49.8114787
   7.7074850  19.6209178  51.9280367   6.7605185  19.5014530  51.8558694
   8.0557623  18.7331676  52.0106628   4.7121283  19.4161895  48.1284719
   4.5646245  18.4878602  48.3092289   5.5374776  19.4381985  47.6441794
   8.3155405  20.2390453  49.2149592   9.2401952  20.0333315  49.0774043
   8.1470708  19.9906855  50.1238933   8.1050721  20.7576121  44.5711683
   8.2787598  20.1922543  43.8185536   8.5979612  21.5577016  44.3891173
  13.9590112  13.5212544  46.1901983  14.4021258  12.7719869  45.7921106
  13.0816622  13.5122680  45.8075715   9.0925893  20.0742885  41.6708582
   9.7876798  20.6949578  41.8895896   9.4349044  19.2238236  41.9460960
  10.9917317  17.5242591  43.1995912  11.5168641  17.8629864  42.4745232
  10.9039669  16.5889606  43.0159047   2.6537365  21.4376664  55.3285789
   2.9624492  21.1925811  56.2008489   3.4512847  21.6423303  54.8404659
   2.6757977  23.5914574  47.5591166   2.2362968  23.0990953  48.2524022
   3.4266094  23.0487542  47.3183241  10.8009098  15.0067961  55.8179839
  10.8507103  14.8417968  56.7595362  10.6923021  14.1395220  55.4277720
  12.3027295  17.4264902  56.0621860  12.0112103  17.7894883  56.8985321
  11.6899426  16.7131911  55.8835192  13.5022977  14.9917782  48.5824431
  14.3369868  15.4307586  48.7461991  13.6382106  14.5156435  47.7632676
  10.5514483  12.5497517  54.5301918  11.0268604  12.7425163  53.7220770
   9.6280048  12.6056703  54.2845302   3.1840762  20.1804637  40.5783675
   2.6114729  20.7994824  40.1254147   3.7573556  20.7303999  41.1123597
   6.4038022  20.4641787  41.7092257   7.3368695  20.3987349  41.9125133
   6.3161235  21.2998054  41.2506790   9.0326038  19.7807657  38.6696205
   8.9539670  19.4467521  39.5631963   9.8535705  20.2729425  38.6687677
  11.7304230  12.6469397  51.8772524  11.6980550  11.7085397  52.0632207
  12.3404853  12.7253433  51.1438349   3.5687560  11.5165450  37.9199728
   4.5146665  11.3871658  37.9888146   3.1901805  10.7780112  38.3969156
  11.8798718   9.4380440  51.9230807  11.3637767   8.6538897  51.7360736
  12.7638667   9.1099157  52.0877326  17.5480779  13.7085404  51.0178560
  18.2784168  13.4470692  51.5786264  16.9387725  12.9714126  51.0580628
  15.6296077  11.8493266  51.6153012  14.9029240  11.7149231  51.0069503
  15.2143363  12.1570095  52.4209730   7.4586777   7.3330978  44.1958163
   6.5712632   7.6180629  43.9778358   7.8740766   7.1724742  43.3485440
  10.8101313   7.3577499  47.9112503  11.5861703   7.8473952  48.1837119
  10.0849447   7.7835553  48.3684372  13.2473871   8.0705118  48.9686443
  13.8418362   7.8300854  48.2579751  13.3200455   7.3512249  49.5959980
   6.6029990  17.0975653  38.2906183   7.3065840  17.3025655  38.9063839
   5.8792639  17.6652415  38.5555267   7.4327800  12.8485514  44.4108454
   7.3763002  13.3054066  43.5716086   7.9856143  12.0876199  44.2331296
  11.2432606   8.6375246  45.2358573  10.9869541   8.2371882  46.0666781
  10.6185474   9.3519040  45.1108712  15.5544944  11.3771319  47.7429864
  14.9944502  11.4464509  48.5161427  14.9488448  11.2012304  47.0229361
   8.5116688  17.5358182  40.3404643   9.3462291  17.1039380  40.1582118
   8.3501030  17.3640196  41.2681538   8.1662580  14.0390295  41.7060983
   8.1111384  13.8734567  40.7649427   7.5408635  14.7466328  41.8623172
   1.4048269  22.2167295  49.3714058   0.4543900  22.2169156  49.2578430
   1.7080755  21.4700029  48.8550092  17.1400963  28.0527833  50.4359820
  17.7779373  27.9334580  49.7323160  17.0221806  29.0008677  50.4947772
  13.9490669  28.0055261  50.3721345  13.6109180  27.8896326  49.4841880
  14.8180437  27.6046426  50.3522351   9.8077485  29.8590738  46.3618236
   9.2442350  29.7680675  45.5934524   9.6929880  29.0390642  46.8420728
  14.4310452  29.1590113  56.3307550  14.4199093  28.7642911  55.4588054
  14.5931091  28.4256186  56.9241322   7.3541917  31.3541929  49.2002456
   8.1463208  31.0132754  48.7848756   7.5938567  31.4636904  50.1204610
  15.3877043  33.5261705  41.6732701  14.7365023  34.1115786  41.2866715
  16.1821406  34.0567900  41.7327738   9.3132670  30.6150842  42.0719835
  10.0863546  30.0679830  41.9332711   9.6658069  31.4795092  42.2834296
  11.1517713  31.9427225  55.2786734  10.8607579  32.8472856  55.1633401
  11.7874697  31.9843752  55.9930804  12.0773920  29.3204073  51.8688094
  12.6737492  29.0960096  51.1545057  12.1348891  28.5788819  52.4713542
  11.3695237  28.6771615  41.9062660  11.2531495  28.0016518  42.5743744
  11.4797497  28.1903988  41.0894813  13.7126778  28.1381762  45.6109349
  13.3484985  27.6112383  46.3222271  14.5693894  27.7480231  45.4375835
  19.6176079  19.4276094  52.8740615  19.2859403  20.2971505  52.6501830
  19.0221692  19.1112378  53.5534646  13.3532265  23.1671661  40.6070698
  13.5206667  24.0351898  40.9741169  13.1629434  23.3298943  39.6831987
  16.1107598  31.6288640  52.2736528  15.8108321  32.5313679  52.1652335
  15.7658658  31.3620823  53.1257681   9.5620080  28.0802437  48.3073232
   8.6370576  27.9478651  48.5150924   9.8104493  28.8596656  48.8043175
  19.5104742  24.1471180  49.9533965  18.6021619  24.0786589  49.6592726
  19.4592338  24.6243125  50.7815791  13.3321486  25.6229319  41.5917365
  13.2121111  26.0686370  42.4302845  12.6374074  25.9714637  41.0330903
   6.9228891  27.7235711  49.1417022   7.0521272  27.9770190  50.0556433
   6.2426342  28.3163419  48.8221677  11.0928378  38.3932961  45.2407496
  11.0152408  39.3440786  45.3195976  10.4890022  38.0478833  45.8982422
  13.5845608  25.5660826  57.8968863  12.8078942  26.1254746  57.8871727
  14.2236171  26.0517609  58.4183733  21.3766388  22.3487619  51.7311839
  20.7340769  22.6420152  51.0851634  20.8721317  22.2340539  52.5365036
  11.8391980  28.3746279  57.4586830  12.5806664  28.9131323  57.1821653
  11.1328965  29.0012568  57.6158381  17.3147320  30.5175420  56.0558991
  17.7230676  30.0757830  55.3113624  16.5924581  29.9428047  56.3093184
  13.6678390  25.4548027  53.4292548  14.5139585  25.8787440  53.5727197
  13.6077027  24.7981651  54.1231111  17.6376134  31.0776610  49.8111280
  17.0084997  31.2422325  49.1087348  17.2501796  31.4918220  50.5822244
  16.8177835  23.1152395  55.0873722  16.5738767  23.8694456  54.5507997
  17.0937766  23.4937743  55.9220969  18.7716298  29.6591007  53.7650987
  18.9833193  30.3022767  53.0885368  18.7246046  28.8253324  53.2972917
  16.3742527  22.2708828  50.6687559  15.5127006  22.5690082  50.9604297
  16.4004961  22.4879227  49.7368592  13.1904096  30.8151019  47.0761365
  13.6542442  31.0938722  46.2865988  12.9260894  29.9134463  46.8934456
  10.0828177  30.3622500  50.0141128  10.6529534  30.7909768  49.3758613
  10.6736289  30.0805085  50.7125314  12.1272982  26.9374171  43.8850930
  12.8297026  27.3895215  44.3524857  11.7953611  26.2957990  44.5130823
  10.5753344  25.5285928  58.2602140   9.9452004  26.2102208  58.4937536
  10.4689432  25.4169009  57.3155278   5.8698316  25.1957724  49.1868064
   5.0797370  25.4515252  48.7108174   6.3609564  26.0106061  49.2920104
  19.8862126  32.5362963  51.9373345  20.7079569  32.1343150  51.6556026
  19.8824529  32.4331197  52.8889460   7.8213062  25.5602303  46.1451541
   7.0244225  25.6720997  46.6635036   7.5938654  25.8988955  45.2792431
  13.6518729  32.0847006  54.0934055  13.7163162  32.5467413  54.9292227
  12.9429653  31.4544371  54.2216365   4.1536019  25.4488214  51.6183055
   4.4044058  26.3335224  51.8840631   4.6895568  25.2692816  50.8458146
  13.3666747  33.7515114  43.9613035  13.2312422  34.5966649  44.3897883
  13.9076559  33.9534391  43.1978969   6.8196144  31.2690552  44.5340961
   7.3320665  32.0633802  44.6846525   7.4718857  30.5716842  44.4674562
   8.6291029  34.3856308  46.6163714   8.8057657  35.3074273  46.4284698
   9.4247862  34.0714727  47.0458094  12.7702047  21.2464573  58.2147647
  13.5111761  21.8471726  58.1352110  13.0019970  20.5042210  57.6565690
   7.9143385  26.4320940  56.4925877   7.7996901  25.5306197  56.7932976
   7.0587903  26.6784637  56.1410693  14.9935223  34.3738680  58.0913378
  14.5499077  33.5875059  57.7734282  15.6552437  34.5617831  57.4257268
   9.7522344  35.9034482  52.6174056  10.3029770  35.7751545  51.8451050
   8.9133820  36.2029371  52.2668949  17.0916461  34.6541480  56.1194779
  17.0734937  35.4750361  55.6275048  18.0136381  34.5295555  56.3444920
  13.5489515  32.1685610  56.9618287  14.0817852  31.4073898  56.7317595
  13.0203597  31.8759261  57.7042442  16.7159210  17.2745675  52.4911929
  16.3723480  18.1647317  52.4151040  17.0838173  17.0847333  51.6281514
   4.7845061  29.5979206  45.3100531   5.6220283  30.0076214  45.0934239
   4.9623329  28.6578648  45.2800725  14.2656604  22.1103987  46.0569602
  13.4098201  21.7210838  45.8775241  14.6783556  22.1895948  45.1969388
  15.7955751  19.6450331  50.4561162  15.2920546  19.6080466  49.6428967
  16.0886358  20.5543073  50.5157819  12.0398637  19.7289060  49.4627344
  12.9051633  19.5331869  49.1033233  12.1076146  19.4999412  50.3896701
  16.4695796  25.1381379  42.8244145  16.1645932  25.4527528  43.6754288
  17.4226238  25.2162799  42.8671478  14.9142228  31.2971602  44.4737099
  14.3863590  30.5624362  44.1610337  14.4129731  32.0746278  44.2277068
   9.6460956  21.9591268  46.8343711  10.2204708  21.7366450  46.1016904
  10.2331938  22.0279963  47.5872312   9.9730543  23.9895729  40.8539596
   9.1367855  24.3270416  41.1748871   9.8335313  23.8544709  39.9166733
  11.9483623  18.8332517  45.5618780  11.2948036  18.5181534  44.9375395
  11.9064098  18.2108258  46.2878603  15.9662907  37.8249319  40.3968758
  15.2924606  38.1281016  41.0053716  16.3528729  38.6278400  40.0474215
  15.1821364  25.3214451  49.8866428  14.2643925  25.5429398  49.7288116
  15.5981507  25.3960761  49.0278135  14.2383062  29.2164407  41.9996062
  13.3294281  28.9323440  42.0968532  14.2678146  29.6363486  41.1399369
  18.5146876  16.5339235  47.5929667  18.8205753  15.6736598  47.3055582
  19.2399481  17.1256855  47.3928661   4.8071232  26.9369921  45.9811265
   4.6095632  26.3439282  45.2562331   4.2517896  26.6322131  46.6987203
  12.7867956  26.8293028  48.1005858  12.8416566  25.8766864  48.0248334
  11.9759158  26.9852467  48.5847156  10.7260316  25.4470087  45.8596237
   9.9128181  25.7464258  46.2661429  11.2219310  25.0525776  46.5770719
  12.8768894  35.4427844  47.7930501  12.8345072  35.6688691  46.8639033
  13.7931592  35.2091219  47.9416302  16.3234527  25.9111912  54.6911130
  16.6783915  26.1383385  55.5505596  16.9706659  26.2430289  54.0688386
  10.2174391  23.0188443  51.4757472  10.8573770  22.8777202  50.7780435
   9.3851921  22.7322956  51.0996074  22.0801644  31.1006875  50.4071731
  22.5138151  31.0082164  51.2554785  22.7933225  31.0764375  49.7691747
  10.9934694  32.3190873  47.5892464  11.7875293  31.8241194  47.3875039
  10.2826387  31.7908737  47.2260170  15.8129539  34.7008969  51.9404832
  15.8666561  35.2699905  52.7082547  14.9444320  34.8710854  51.5758869
   7.3017458  26.4633955  43.6652217   6.3715046  26.4018411  43.8822179
   7.3974930  25.9409908  42.8688858   7.2203007  22.9888768  46.2530458
   7.4809824  23.9034101  46.1439619   8.0420179  22.5213211  46.4027071
   8.6927932  24.4026525  53.4229283   9.3650986  24.1943887  52.7741932
   7.8657719  24.2048611  52.9834515  22.9417194  31.1430575  52.9404616
  23.1353084  32.0476386  53.1863891  22.8417812  30.6837995  53.7743201
  14.5953504  21.0288466  55.4394944  13.9481419  21.7278416  55.3459420
  15.3654520  21.4624610  55.8071192  18.0032302  31.2937318  58.5145497
  17.8517809  31.0647870  57.5975581  17.9936982  32.2507920  58.5276842
  14.7717639  28.8669231  53.4991763  15.7009699  29.0180391  53.3260731
  14.3508669  28.9553252  52.6440410  13.5705970  32.8919895  51.2690301
  13.4317056  32.5238680  52.1416239  12.7820567  33.4067535  51.0974259
  14.1654122  37.9928992  42.6115838  14.3405878  37.5217035  43.4261460
  13.4786910  38.6194758  42.8397098  15.1211186  32.2701498  48.6579139
  14.7861018  32.2302268  49.5536789  14.6215131  31.6046214  48.1849549
   9.0955430  27.6769128  54.1831720   8.9575227  26.9449367  54.7843259
  10.0060353  27.5878028  53.9015908  11.7237730  27.3889087  53.6715400
  12.4337349  26.7482280  53.6302018  11.6807038  27.6401982  54.5941580
  19.7124509  34.3256441  56.5921979  19.6537055  33.6415661  55.9252562
  20.1144027  35.0675431  56.1402605  10.4366664  24.3754305  55.4911039
   9.9004021  23.9245044  56.1432635   9.8483373  24.5100214  54.7481503
   8.7315208  41.1418355  49.3855698   8.9711806  41.7736879  50.0634716
   7.8884404  40.7906395  49.6721057   9.8468923  23.8342957  38.0537503
   8.9698389  23.7131758  37.6899749  10.3226676  23.0429035  37.8016391
  19.7141916  32.2896025  54.8235959  18.8268695  31.9521947  54.9462357
  20.2840467  31.5579056  55.0604724   1.3671063  28.6220116  48.1479010
   2.0542103  28.3081846  47.5600025   1.2119192  29.5261481  47.8746261
   6.1705785  23.5110313  52.5764034   6.0863974  22.9035983  51.8414444
   5.3488492  24.0019331  52.5773530  13.2443070  36.9497477  51.7897202
  13.1713241  37.7552449  52.3016506  12.8020463  37.1489443  50.9645223
  13.0332849  36.1869247  45.3000023  12.2500371  36.7290927  45.3938248
  13.7325594  36.7043227  45.6994264  16.3429499  21.9963877  47.9434229
  16.8398199  21.2433839  47.6235299  15.5716481  22.0328193  47.3777438
  24.1959257  27.7004242  49.5852520  24.1849133  28.5828958  49.2146453
  23.3276636  27.3475793  49.3907057  15.7041753  36.8484311  53.9455360
  16.4169725  37.4831776  53.8731262  15.2131782  36.9448177  53.1295362
  12.9264468  24.1381260  47.6705913  12.5562256  23.5852300  48.3586819
  13.4223560  23.5339393  47.1180913  10.7553667  34.5978755  54.7660931
  11.4563126  35.2315238  54.9190325  10.2848782  34.9393486  54.0056570
  18.7848494  18.9633470  50.0913588  17.8711574  19.1937697  50.2595794
  19.2141596  19.0471914  50.9427620  18.5554953  27.1523362  52.5913482
  17.9026403  27.3999269  51.9365934  18.9335332  26.3387500  52.2575959
  15.5162126  37.1883055  46.6941652  15.6984521  36.3704711  47.1569404
  16.3395112  37.4050747  46.2566542  15.8504292  36.1151240  43.9556700
  16.3792058  35.6043695  43.3426862  16.1132512  35.7993771  44.8202233
  14.6042526  27.8943173  59.0779519  13.9283163  27.7937302  59.7481894
  15.4270159  27.7382387  59.5415516   6.3521385  34.1315110  51.6992034
   6.9374821  33.3858798  51.8319938   6.1546223  34.4419066  52.5828698
   9.2060040  37.1666357  46.7154476   8.5370415  37.6512485  46.2318516
   9.0672910  37.4135577  47.6297855   0.9439039  26.7020710  50.4196477
   0.9823139  26.1684301  51.2133595   0.4379332  26.1755915  49.8007454
  13.3465308  39.2010101  53.3137135  13.8983616  39.3641722  54.0786220
  13.6871502  39.7914538  52.6417160   8.3229802  21.5485250  53.9159019
   8.3871128  22.4100081  53.5036417   8.2596922  20.9359252  53.1831378
   7.7982074  23.6208383  57.5632054   8.4254113  23.2385460  58.1769578
   6.9409993  23.4022585  57.9287746  18.1976183  34.0271358  59.1685789
  18.7416087  34.6401316  58.6740744  17.6163028  34.5850936  59.6852802
   4.5747617  25.4284812  43.4950408   4.8701058  24.5195490  43.4417462
   3.6735653  25.4072551  43.1731411  16.4833696  37.1492076  50.3000817
  16.3584835  36.3481816  49.7911762  17.1412787  37.6438269  49.8114787
   8.1041864  23.5040809  49.4777957   7.3828450  24.1176776  49.3385430
   8.8935120  24.0398573  49.3994603  18.5468604  34.9501096  51.9280367
  17.5998940  34.8306447  51.8558694  18.8951377  34.0623594  52.0106628
  10.9068177  20.8395235  55.7518609  11.4302579  21.0857532  56.5144918
  10.6880511  21.6715270  55.3321746   6.3035459  23.1098910  43.6189734
   5.9748165  22.2296289  43.4364840   6.6574829  23.0546578  44.5066123
  15.5515037  34.7453812  48.1284719  15.4040000  33.8170520  48.3092289
  16.3768531  34.7673903  47.6441794   9.4177282  23.3971879  43.9865211
   9.7573354  23.9257801  43.2643820   9.8649402  23.7352286  44.7623778
  19.1549159  35.5682371  49.2149592  20.0795707  35.3625232  49.0774043
  18.9864463  35.3198772  50.1238933  12.1120723  21.7808930  53.4368279
  11.7717543  20.9816743  53.8388959  11.4059729  22.0810641  52.8645113
  12.7637194  18.8658243  51.8895602  13.5863264  18.3918721  51.7674493
  13.0075258  19.6448726  52.3894289  11.4045429  21.8946501  42.1858504
  12.1253791  22.2727754  41.6822221  10.7810733  22.6135378  42.2893482
  15.5476552  22.5991650  43.1216836  15.7640166  23.4816288  42.8205665
  15.0670619  22.2077863  42.3922478  10.2875773  25.5577363  49.6987581
  10.1420354  25.8717666  50.5911862   9.8100977  26.1762264  49.1458480
  12.1472156  22.5479911  49.7468471  12.1333725  21.6521005  49.4100768
  12.8644584  22.5550575  50.3806757  13.9998287  22.9817251  51.7921598
  13.7416065  23.9034322  51.7905928  13.4683327  22.5847686  52.4822062
   4.7621435  28.0982708  52.6375242   4.2174903  28.8742516  52.7695516
   5.6400785  28.4453512  52.4794364  11.5509052  21.4294291  45.0156041
  11.6724963  20.5010938  45.2146928  11.2611094  21.4432977  44.1034356
  14.4200242  19.1149202  48.1522761  14.4421939  19.1788535  47.1974740
  14.8368301  18.2753711  48.3463267   5.5487457  27.2252604  55.5305399
   4.8069193  27.3735239  56.1170029   5.2280201  27.4860869  54.6672148
  13.4931120  36.7668582  55.3285789  13.8018246  36.5217729  56.2008489
  14.2906602  36.9715221  54.8404659  13.5151732  38.9206492  47.5591166
  13.0756722  38.4282870  48.2524022  14.2659849  38.3779459  47.3183241
   5.9944071  35.1118033  47.5615794   6.8202091  34.8121804  47.1814437
   5.6438123  34.3425655  48.0105582  10.9625604  34.4644501  49.6313467
  10.3405613  33.8015206  49.3315695  11.6330471  34.4905633  48.9487115
   4.1952676  33.0304359  48.5204727   3.3584584  32.6026533  48.3388728
   4.1676321  33.2236802  49.4575518  11.0350131  22.9426289  59.2245973
  11.0838287  23.8188412  58.8423743  11.5772646  22.4003682  58.6517616
  21.5204977  33.4867412  58.5047110  20.7300521  33.4691551  57.9651610
  21.2838332  34.0255706  59.2596147  21.6402852  30.3359878  55.8179839
  21.6900857  30.1709886  56.7595362  21.5316776  29.4687137  55.4277720
  10.5239111  33.0148424  43.1071928  10.6727231  33.6983889  42.4538601
  11.3305554  32.9953514  43.6221384  18.9306615  26.3190806  57.1339146
  19.8316477  26.1797271  56.8423143  19.0054589  26.4845261  58.0737323
  13.2649420  23.6957661  55.9792332  12.3952729  23.9891227  55.7074920
  13.5008900  24.2798106  56.6999596  23.1421049  32.7556820  56.0621860
  22.8505857  33.1186801  56.8985321  22.5293180  32.0423828  55.8835192
  21.3908237  27.8789435  54.5301918  21.8662359  28.0717081  53.7220770
  20.4673803  27.9348620  54.2845302   8.2791744  29.0413602  44.1132997
   8.0337786  28.1375932  44.3113207   8.4487658  29.0430752  43.1712475
  15.9688454  19.9137278  53.4957752  16.4870398  20.6498305  53.1704241
  15.6143587  20.2201271  54.3304511   7.5487391  24.7741959  41.6119158
   6.8556636  24.8486314  40.9559194   7.3039143  24.0102303  42.1340675
  16.2201048  16.3337561  49.0158649  16.5002802  15.6660750  49.6419075
  17.0051655  16.5266656  48.5033313  14.0234516  35.5096555  40.5783675
  13.4508483  36.1286742  40.1254147  14.5967310  36.0595916  41.1123597
  20.0909906  24.7555195  52.7630224  21.0427329  24.8553292  52.7842448
  19.9213357  23.9633463  53.2728308  18.1124286  21.8410778  52.9489625
  17.5174218  22.1215791  52.2536114  17.8273982  22.3304679  53.7206366
  22.5697984  27.9761314  51.8772524  22.5374304  27.0377315  52.0632207
  23.1798608  28.0545351  51.1438349  22.7192473  24.7672358  51.9230807
  22.2031521  23.9830814  51.7360736  23.6032421  24.4391074  52.0877326
  20.3803199  18.5113373  47.8826620  20.1828021  18.2028462  48.7669951
  20.9902905  19.2375012  48.0124549  28.3874534  29.0377321  51.0178560
  29.1177922  28.7762609  51.5786264  27.7781479  28.3006043  51.0580628
  26.4689831  27.1785184  51.6153012  25.7422995  27.0441149  51.0069503
  26.0537118  27.4862012  52.4209730  14.2920007  30.8975113  59.3800385
  15.2123017  31.0753713  59.5740431  14.2569590  29.9531159  59.2280084
   3.5102172  26.0913707  48.3053659   3.1904957  25.2379015  48.0128033
   2.9635601  26.3062285  49.0611627   7.2882080  28.8076148  52.0223166
   7.5068090  29.7393256  52.0411200   7.7007854  28.4484123  52.8077970
  14.2086298  19.3144233  44.0098854  13.3987026  18.9691318  44.3854100
  14.8970715  19.0051777  44.5986466  16.1376846  18.3922280  45.6323151
  16.6907885  18.8117734  46.2913174  16.3746932  17.4658028  45.6746107
  12.1609945  24.3809354  61.4125915  12.0606672  25.3303711  61.3438006
  11.9431487  24.0527593  60.5401985  11.3623017  21.6294279  37.9966592
  12.2242181  21.9549177  38.2562409  11.5473361  20.8425775  37.4839658
   3.3790432  29.7116619  50.2746781   2.6853904  29.2970571  49.7616735
   4.1263423  29.7537155  49.6780200  19.5155653  20.5022805  45.1401815
  18.9354322  21.1607609  44.7579868  19.2491586  19.6800150  44.7289233
  17.9659220  19.9027863  47.3423135  18.4658998  20.0144398  46.5337454
  18.6094827  19.5988916  47.9823944  12.0241215  27.8106493  60.2290976
  11.5408297  28.6106853  60.4354865  12.1102154  27.8214438  59.2758420
   5.2927175  29.6434872  48.1512796   5.2697863  29.7422560  47.1994679
   5.6027811  30.4900023  48.4729962   7.9514553  31.7011027  52.2659410
   8.9057806  31.6694970  52.1989342   7.7527076  31.2401651  53.0809636
   8.5413935  30.2712144  54.8330208   9.3606824  30.7656222  54.8565045
   8.8150743  29.3544112  54.8047775  18.2980531  22.6622896  44.1958163
  17.4106386  22.9472546  43.9778358  18.7134520  22.5016659  43.3485440
  24.0867626  23.3997036  48.9686443  24.6812117  23.1592772  48.2579751
  24.1594210  22.6804167  49.5959980   6.3064782  37.2430647  49.2829608
   6.1719250  36.4831048  48.7167606   5.8896844  37.9671547  48.8158397
   9.4633907  38.1399964  49.4948051   9.3466292  39.0845396  49.3926741
   8.6426354  37.8373526  49.8833850   3.7948849  24.6050277  55.5322405
   4.4407713  24.0949231  56.0209630   3.5866000  25.3418959  56.1065830
  16.3202241  31.6731125  61.0314546  17.1893401  31.8471777  60.6701180
  15.8408993  32.4925542  60.9090275  12.3152460  18.8690322  41.2846301
  12.3031130  19.8132162  41.4414572  13.2075882  18.6860467  40.9905762
  10.4888422  38.7928226  52.7103979  11.3915668  38.8251836  53.0270474
  10.2625792  37.8628677  52.7250315  12.2442024  37.5459212  49.3714058
  11.2937655  37.5461074  49.2578430  12.5474510  36.7991947  48.8550092
  16.1304579  15.4633099  45.5392238  15.3636975  14.9091585  45.6848920
  16.5415284  15.5354967  46.4006390  27.9794717  43.3819751  50.4359820
  28.6173127  43.2626498  49.7323160  27.8615560  44.3300595  50.4947772
  24.7884423  43.3347179  50.3721345  24.4502935  43.2188244  49.4841880
  25.6574192  42.9338344  50.3522351  20.6471239  45.1882655  46.3618236
  20.0836104  45.0972592  45.5934524  20.5323634  44.3682560  46.8420728
  25.2704206  44.4882031  56.3307550  25.2592847  44.0934829  55.4588054
  25.4324846  43.7548103  56.9241322  18.1935671  46.6833847  49.2002456
  18.9856963  46.3424672  48.7848756  18.4332321  46.7928822  50.1204610
  26.2270798  48.8553623  41.6732701  25.5758778  49.4407703  41.2866715
  27.0215161  49.3859818  41.7327738  20.1526425  45.9442760  42.0719835
  20.9257301  45.3971747  41.9332711  20.5051824  46.8087009  42.2834296
  21.9911468  47.2719142  55.2786734  21.7001334  48.1764773  55.1633401
  22.6268452  47.3135670  55.9930804  22.9167674  44.6495991  51.8688094
  23.5131247  44.4252013  51.1545057  22.9742646  43.9080736  52.4713542
  22.4892703  42.1035426  39.7038285  22.7418223  41.5816948  38.9421748
  21.5517262  41.9401572  39.8064969  27.5335986  41.1071205  47.5113028
  28.3199075  40.6890628  47.1603445  27.7974690  42.0117297  47.6794677
  27.7046063  46.5444055  42.2101685  27.0691896  46.6178681  42.9222590
  27.3743469  47.1337654  41.5320764  32.9344413  41.0446438  48.4146007
  33.6669585  40.4745655  48.6483836  32.1783768  40.6568038  48.8552512
  22.2088992  44.0063532  41.9062660  22.0925250  43.3308436  42.5743744
  22.3191251  43.5195906  41.0894813  24.5520532  43.4673679  45.6109349
  24.1878740  42.9404300  46.3222271  25.4087648  43.0772148  45.4375835
  30.4569833  34.7568012  52.8740615  30.1253158  35.6263423  52.6501830
  29.8615446  34.4404296  53.5534646  26.9501353  46.9580558  52.2736528
  26.6502076  47.8605597  52.1652335  26.6052412  46.6912741  53.1257681
  20.4013834  43.4094355  48.3073232  19.4764331  43.2770569  48.5150924
  20.6498247  44.1888574  48.8043175  30.3498496  39.4763098  49.9533965
  29.4415374  39.4078507  49.6592726  30.2986092  39.9535043  50.7815791
  24.1715240  40.9521237  41.5917365  24.0514866  41.3978287  42.4302845
  23.4767829  41.3006554  41.0330903  17.7622645  43.0527628  49.1417022
  17.8915026  43.3062107  50.0556433  17.0820096  43.6455336  48.8221677
  21.9322132  53.7224878  45.2407496  21.8546162  54.6732703  45.3195976
  21.3283776  53.3770751  45.8982422  24.4239362  40.8952744  57.8968863
  23.6472696  41.4546664  57.8871727  25.0629925  41.3809527  58.4183733
  32.2160143  37.6779537  51.7311839  31.5734523  37.9712070  51.0851634
  31.7115071  37.5632457  52.5365036  22.6785735  43.7038197  57.4586830
  23.4200419  44.2423241  57.1821653  21.9722720  44.3304486  57.6158381
  28.1541074  45.8467338  56.0558991  28.5624430  45.4049748  55.3113624
  27.4318336  45.2719965  56.3093184  24.5072144  40.7839944  53.4292548
  25.3533339  41.2079358  53.5727197  24.4470782  40.1273569  54.1231111
  28.4769889  46.4068528  49.8111280  27.8478751  46.5714242  49.1087348
  28.0895551  46.8210138  50.5822244  32.3559121  47.3422966  47.1655644
  31.6710159  47.7221867  46.6152677  32.4402970  47.9518293  47.8987592
  27.6571590  38.4444313  55.0873722  27.4132521  39.1986373  54.5507997
  27.9331520  38.8229660  55.9220969  29.6110052  44.9882925  53.7650987
  29.8226948  45.6314685  53.0885368  29.5639801  44.1545242  53.2972917
  27.2136281  37.6000746  50.6687559  26.3520760  37.8981999  50.9604297
  27.2398716  37.8171145  49.7368592  24.0297851  46.1442936  47.0761365
  24.4936196  46.4230639  46.2865988  23.7654649  45.2426381  46.8934456
  20.9221932  45.6914418  50.0141128  21.4923289  46.1201686  49.3758613
  21.5130044  45.4097002  50.7125314  22.9666737  42.2666089  43.8850930
  23.6690780  42.7187132  44.3524857  22.6347365  41.6249907  44.5130823
  21.4147098  40.8577845  58.2602140  20.7845759  41.5394126  58.4937536
  21.3083186  40.7460927  57.3155278  16.7092071  40.5249641  49.1868064
  15.9191125  40.7807170  48.7108174  17.2003318  41.3397979  49.2920104
  30.7255880  47.8654880  51.9373345  31.5473324  47.4635068  51.6556026
  30.7218283  47.7623115  52.8889460  18.6606816  40.8894221  46.1451541
  17.8637979  41.0012915  46.6635036  18.4332408  41.2280873  45.2792431
  24.4912484  47.4138924  54.0934055  24.5556916  47.8759331  54.9292227
  23.7823408  46.7836289  54.2216365  14.9929774  40.7780132  51.6183055
  15.2437812  41.6627142  51.8840631  15.5289322  40.5984733  50.8458146
  38.8161873  44.2093629  48.2858316  38.0625582  43.6401027  48.1302321
  38.9509415  44.1756293  49.2328951  24.2060501  49.0807031  43.9613035
  24.0706176  49.9258567  44.3897883  24.7470314  49.2826309  43.1978969
  20.6927841  35.1598611  60.6227391  20.2994787  34.6064810  61.2975035
  21.5093981  35.4709190  61.0133908  17.6589899  46.5982469  44.5340961
  18.1714419  47.3925720  44.6846525  18.3112612  45.9008760  44.4674562
  19.4684783  49.7148226  46.6163714  19.6451412  50.6366190  46.4284698
  20.2641617  49.4006645  47.0458094  23.6095802  36.5756490  58.2147647
  24.3505515  37.1763643  58.1352110  23.8413725  35.8334128  57.6565690
  18.7537140  41.7612857  56.4925877  18.6390655  40.8598115  56.7932976
  17.8981658  42.0076554  56.1410693  25.8328978  49.7030598  58.0913378
  25.3892832  48.9166976  57.7734282  26.4946191  49.8909748  57.4257268
  20.5916099  51.2326399  52.6174056  21.1423524  51.1043463  51.8451050
  19.7527575  51.5321288  52.2668949  27.9310216  49.9833398  56.1194779
  27.9128691  50.8042279  55.6275048  28.8530136  49.8587473  56.3444920
  24.3883270  47.4977527  56.9618287  24.9211607  46.7365815  56.7317595
  23.8597351  47.2051179  57.7042442  27.5552965  32.6037593  52.4911929
  27.2117234  33.4939235  52.4151040  27.9231928  32.4139251  51.6281514
  15.6238816  44.9271124  45.3100531  16.4614038  45.3368132  45.0934239
  15.8017083  43.9870566  45.2800725  27.5203248  42.5946204  40.9984364
  27.0049871  43.3650809  41.2372751  27.2480556  41.9211340  41.6217426
  25.1050359  37.4395905  46.0569602  24.2491955  37.0502755  45.8775241
  25.5177310  37.5187866  45.1969388  26.6349505  34.9742248  50.4561162
  26.1314301  34.9372383  49.6428967  26.9280112  35.8834991  50.5157819
  22.8792391  35.0580978  49.4627344  23.7445388  34.8623787  49.1033233
  22.9469900  34.8291330  50.3896701  32.4937522  45.3478559  42.9337538
  31.7166965  45.0089718  42.4892700  33.1729003  45.3531182  42.2592503
  25.7535983  46.6263520  44.4737099  25.2257344  45.8916279  44.1610337
  25.2523485  47.4038196  44.2277068  30.7328829  44.8212540  49.5904146
  30.0752503  45.5111802  49.6784274  31.5369228  45.2108972  49.9338132
  20.4854710  37.2883186  46.8343711  21.0598462  37.0658367  46.1016904
  21.0725693  37.3571880  47.5872312  29.5434287  43.1756913  47.6408087
  30.0566169  43.8086905  48.1429797  30.1935511  42.5758108  47.2751447
  23.8988583  44.4443730  37.4772072  22.9915645  44.2132983  37.6763221
  24.3959615  43.6481349  37.6646054  26.8056662  53.1541237  40.3968758
  26.1318360  53.4572934  41.0053716  27.1922484  53.9570317  40.0474215
  26.0215118  40.6506368  49.8866428  25.1037680  40.8721315  49.7288116
  26.4375262  40.7252679  49.0278135  26.8050166  42.0497784  45.0169108
  27.5521985  42.5619181  44.7076230  27.0741756  41.7281837  45.8773502
  25.0776816  44.5456325  41.9996062  24.1688036  44.2615358  42.0968532
  25.1071900  44.9655403  41.1399369  30.3096084  48.1562914  45.7687230
  29.8558411  47.3153824  45.8252420  29.6790050  48.7924313  46.1062010
  28.7529023  49.9939411  46.7037048  29.0451997  50.5544468  45.9849414
  29.2627643  50.2867972  47.4590207  15.6464987  42.2661839  45.9811265
  15.4489386  41.6731200  45.2562331  15.0911651  41.9614049  46.6987203
  23.6261710  42.1584945  48.1005858  23.6810320  41.2058782  48.0248334
  22.8152912  42.3144384  48.5847156  24.7752904  46.0865068  39.3384141
  24.3372334  45.3700927  38.8789778  25.5163345  46.3141183  38.7769232
  21.5654070  40.7762005  45.8596237  20.7521936  41.0756176  46.2661429
  22.0613064  40.3817694  46.5770719  23.7162648  50.7719762  47.7930501
  23.6738827  50.9980608  46.8639033  24.6325347  50.5383137  47.9416302
  27.1628282  41.2403830  54.6911130  27.5177670  41.4675303  55.5505596
  27.8100413  41.5722206  54.0688386  32.8926019  44.3622265  45.3960459
  32.7543917  44.5523861  44.4681649  32.5362238  45.1241648  45.8528511
  21.0568145  38.3480361  51.4757472  21.6967524  38.2069120  50.7780435
  20.2245676  38.0614874  51.0996074  32.9195398  46.4298792  50.4071731
  33.3531905  46.3374082  51.2554785  33.6326979  46.4056293  49.7691747
  21.8328449  47.6482791  47.5892464  22.6269047  47.1533111  47.3875039
  21.1220141  47.1200654  47.2260170  26.6523293  50.0300887  51.9404832
  26.7060316  50.5991823  52.7082547  25.7838075  50.2002772  51.5758869
  18.1411212  41.7925873  43.6652217  17.2108800  41.7310328  43.8822179
  18.2368684  41.2701826  42.8688858  18.0596761  38.3180686  46.2530458
  18.3203579  39.2326019  46.1439619  18.8813934  37.8505128  46.4027071
  19.5321687  39.7318443  53.4229283  20.2044740  39.5235805  52.7741932
  18.7051473  39.5340529  52.9834515  33.7810948  46.4722493  52.9404616
  33.9746838  47.3768304  53.1863891  33.6811566  46.0129912  53.7743201
  25.4347259  36.3580384  55.4394944  24.7875174  37.0570333  55.3459420
  26.2048274  36.7916528  55.8071192  28.8426057  46.6229236  58.5145497
  28.6911563  46.3939788  57.5975581  28.8330736  47.5799837  58.5276842
  25.6111393  44.1961149  53.4991763  26.5403453  44.3472308  53.3260731
  25.1902423  44.2845169  52.6440410  24.4099725  48.2211813  51.2690301
  24.2710811  47.8530597  52.1416239  23.6214321  48.7359452  51.0974259
  25.0047877  53.3220910  42.6115838  25.1799633  52.8508953  43.4261460
  24.3180665  53.9486676  42.8397098  25.9604940  47.5993416  48.6579139
  25.6254773  47.5594186  49.5536789  25.4608886  46.9338132  48.1849549
  19.9349184  43.0061046  54.1831720  19.7968982  42.2741285  54.7843259
  20.8454107  42.9169946  53.9015908  28.8964132  44.9449450  38.9316199
  28.2793302  44.2196278  38.8349251  28.4280620  45.7058810  38.5883273
  22.5631485  42.7181005  53.6715400  23.2731103  42.0774197  53.6302018
  22.5200793  42.9693900  54.5941580  30.5518263  49.6548358  56.5921979
  30.4930810  48.9707579  55.9252562  30.9537782  50.3967348  56.1402605
  21.2760419  39.7046223  55.4911039  20.7397776  39.2536961  56.1432635
  20.6877127  39.8392132  54.7481503  19.5708962  56.4710272  49.3855698
  19.8105560  57.1028796  50.0634716  18.7278159  56.1198312  49.6721057
  30.5535671  47.6187942  54.8235959  29.6662449  47.2813864  54.9462357
  31.1234222  46.8870974  55.0604724  12.2064818  43.9512034  48.1479010
  12.8935858  43.6373764  47.5600025  12.0512946  44.8553399  47.8746261
  17.0099540  38.8402231  52.5764034  16.9257729  38.2327900  51.8414444
  16.1882246  39.3311249  52.5773530  24.0836824  52.2789395  51.7897202
  24.0106995  53.0844366  52.3016506  23.6414217  52.4781361  50.9645223
  23.8726604  51.5161165  45.3000023  23.0894126  52.0582845  45.3938248
  24.5719349  52.0335144  45.6994264  27.1823254  37.3255794  47.9434229
  27.6791953  36.5725757  47.6235299  26.4110235  37.3620111  47.3777438
  35.0353011  43.0296160  49.5852520  35.0242887  43.9120875  49.2146453
  34.1670391  42.6767711  49.3907057  26.5435508  52.1776229  53.9455360
  27.2563480  52.8123694  53.8731262  26.0525536  52.2740095  53.1295362
  28.2653034  46.0827481  45.5172652  27.3309313  46.2028944  45.3477356
  28.4429703  45.1799948  45.2532662  23.7658222  39.4673177  47.6705913
  23.3956010  38.9144218  48.3586819  24.2617315  38.8631311  47.1180913
  31.6525586  41.9244801  46.0522686  32.1186038  42.7572792  45.9782989
  32.1033086  41.4589782  46.7567945  21.5947421  49.9270672  54.7660931
  22.2956881  50.5607155  54.9190325  21.1242536  50.2685404  54.0056570
  29.7201817  48.2688622  43.0508838  29.9961661  48.1545217  43.9602712
  28.8506316  47.8706107  43.0121011  29.6242249  34.2925388  50.0913588
  28.7105328  34.5229615  50.2595794  30.0535350  34.3763832  50.9427620
  29.3948707  42.4815280  52.5913482  28.7420157  42.7291187  51.9365934
  29.7729087  41.6679418  52.2575959  26.3555881  52.5174973  46.6941652
  26.5378275  51.6996629  47.1569404  27.1788867  52.7342665  46.2566542
  26.6898046  51.4443158  43.9556700  27.2185813  50.9335613  43.3426862
  26.9526266  51.1285688  44.8202233  25.4436280  43.2235091  59.0779519
  24.7676917  43.1229220  59.7481894  26.2663914  43.0674304  59.5415516
  17.1915139  49.4607027  51.6992034  17.7768576  48.7150715  51.8319938
  16.9939978  49.7710984  52.5828698  20.0453794  52.4958275  46.7154476
  19.3764170  52.9804402  46.2318516  19.9066664  52.7427495  47.6297855
  11.7832794  42.0312627  50.4196477  11.8216893  41.4976218  51.2133595
  11.2773087  41.5047833  49.8007454  24.1859063  54.5302018  53.3137135
  24.7377371  54.6933640  54.0786220  24.5265256  55.1206456  52.6417160
  19.1623556  36.8777168  53.9159019  19.2264883  37.7391999  53.5036417
  19.0990676  36.2651170  53.1831378  18.6375829  38.9500301  57.5632054
  19.2647868  38.5677378  58.1769578  17.7803748  38.7314502  57.9287746
  29.0369937  49.3563276  59.1685789  29.5809841  49.9693234  58.6740744
  28.4556782  49.9142854  59.6852802  15.4141371  40.7576730  43.4950408
  15.7094813  39.8487408  43.4417462  14.5129407  40.7364469  43.1731411
  27.3227450  52.4783994  50.3000817  27.1978590  51.6773734  49.7911762
  27.9806541  52.9730187  49.8114787  18.9435618  38.8332726  49.4777957
  18.2222204  39.4468694  49.3385430  19.7328874  39.3690491  49.3994603
  29.3862359  50.2793014  51.9280367  28.4392694  50.1598365  51.8558694
  29.7345132  49.3915512  52.0106628  21.7461932  36.1687153  55.7518609
  22.2696334  36.4149449  56.5144918  21.5274265  37.0007188  55.3321746
  17.1429213  38.4390827  43.6189734  16.8141919  37.5588206  43.4364840
  17.4968584  38.3838496  44.5066123  26.3908792  50.0745730  48.1284719
  26.2433754  49.1462437  48.3092289  27.2162285  50.0965821  47.6441794
  29.9942914  50.8974289  49.2149592  30.9189461  50.6917150  49.0774043
  29.8258217  50.6490690  50.1238933  22.9514477  37.1100848  53.4368279
  22.6111297  36.3108661  53.8388959  22.2453483  37.4102559  52.8645113
  23.6030949  34.1950160  51.8895602  24.4257018  33.7210638  51.7674493
  23.8469012  34.9740644  52.3894289  21.1269528  40.8869281  49.6987581
  20.9814108  41.2009584  50.5911862  20.6494731  41.5054181  49.1458480
  22.9865910  37.8771829  49.7468471  22.9727479  36.9812922  49.4100768
  23.7038339  37.8842493  50.3806757  24.8392041  38.3109169  51.7921598
  24.5809819  39.2326240  51.7905928  24.3077082  37.9139604  52.4822062
  29.7838230  51.4159956  44.5711683  29.9575107  50.8506379  43.8185536
  30.2767121  52.2160851  44.3891173  15.6015190  43.4274625  52.6375242
  15.0568658  44.2034433  52.7695516  16.4794540  43.7745430  52.4794364
  35.6377621  44.1796379  46.1901983  36.0808767  43.4303704  45.7921106
  34.7604131  44.1706516  45.8075715  30.7713402  50.7326721  41.6708582
  31.4664307  51.3533413  41.8895896  31.1136553  49.8822072  41.9460960
  16.3881212  42.5544522  55.5305399  15.6462948  42.7027157  56.1170029
  16.0673956  42.8152787  54.6672148  32.6704826  48.1826426  43.1995912
  33.1956150  48.5213699  42.4745232  32.5827178  47.2473441  43.0159047
  24.3324874  52.0960500  55.3285789  24.6412001  51.8509647  56.2008489
  25.1300356  52.3007138  54.8404659  24.3545486  54.2498409  47.5591166
  23.9150477  53.7574788  48.2524022  25.1053603  53.7071377  47.3183241
  16.8337825  50.4409950  47.5615794  17.6595845  50.1413722  47.1814437
  16.4831877  49.6717573  48.0105582  21.8019358  49.7936419  49.6313467
  21.1799368  49.1307124  49.3315695  22.4724225  49.8197550  48.9487115
  15.0346430  48.3596277  48.5204727  14.1978339  47.9318451  48.3388728
  15.0070076  48.5528720  49.4575518  21.8743886  38.2718207  59.2245973
  21.9232041  39.1480329  58.8423743  22.4166400  37.7295600  58.6517616
  32.3598732  48.8159330  58.5047110  31.5694275  48.7983469  57.9651610
  32.1232086  49.3547623  59.2596147  32.4796607  45.6651796  55.8179839
  32.5294612  45.5001804  56.7595362  32.3710530  44.7979055  55.4277720
  21.3632865  48.3440342  43.1071928  21.5120986  49.0275806  42.4538601
  22.1699309  48.3245432  43.6221384  29.7700369  41.6482724  57.1339146
  30.6710232  41.5089189  56.8423143  29.8448344  41.8137179  58.0737323
  24.1043174  39.0249579  55.9792332  23.2346484  39.3183145  55.7074920
  24.3402655  39.6090024  56.6999596  33.9814804  48.0848738  56.0621860
  33.6899612  48.4478718  56.8985321  33.3686935  47.3715746  55.8835192
  35.1810486  45.6501617  48.5824431  36.0157377  46.0891422  48.7461991
  35.3169615  45.1740271  47.7632676  32.2301992  43.2081352  54.5301918
  32.7056113  43.4008999  53.7220770  31.3067557  43.2640538  54.2845302
  19.1185498  44.3705519  44.1132997  18.8731540  43.4667849  44.3113207
  19.2881413  44.3722670  43.1712475  26.8082208  35.2429196  53.4957752
  27.3264152  35.9790223  53.1704241  26.4537341  35.5493189  54.3304511
  18.3881146  40.1033877  41.6119158  17.6950391  40.1778232  40.9559194
  18.1432898  39.3394221  42.1340675  24.8628271  50.8388472  40.5783675
  24.2902238  51.4578659  40.1254147  25.4361065  51.3887834  41.1123597
  30.9303661  40.0847112  52.7630224  31.8821084  40.1845210  52.7842448
  30.7607111  39.2925381  53.2728308  28.9518040  37.1702696  52.9489625
  28.3567972  37.4507708  52.2536114  28.6667737  37.6596597  53.7206366
  28.0825531  51.1225622  41.7092257  29.0156204  51.0571184  41.9125133
  27.9948744  51.9581889  41.2506790  30.7113547  50.4391493  38.6696205
  30.6327179  50.1051356  39.5631963  31.5323214  50.9313261  38.6687677
  33.4091739  43.3053232  51.8772524  33.3768059  42.3669233  52.0632207
  34.0192362  43.3837269  51.1438349  25.2475069  42.1749285  37.9199728
  26.1934174  42.0455493  37.9888146  24.8689314  41.4363947  38.3969156
  33.5586227  40.0964275  51.9230807  33.0425276  39.3122732  51.7360736
  34.4426176  39.7682992  52.0877326  39.2268288  44.3669239  51.0178560
  39.9571677  44.1054527  51.5786264  38.6175234  43.6297961  51.0580628
  37.3083586  42.5077101  51.6153012  36.5816749  42.3733066  51.0069503
  36.8930872  42.8153930  52.4209730  25.1313762  46.2267031  59.3800385
  26.0516771  46.4045630  59.5740431  25.0963345  45.2823077  59.2280084
  14.3495927  41.4205625  48.3053659  14.0298711  40.5670933  48.0128033
  13.8029355  41.6354203  49.0611627  18.1275834  44.1368066  52.0223166
  18.3461844  45.0685174  52.0411200  18.5401608  43.7776040  52.8077970
  23.0003700  39.7101272  61.4125915  22.9000427  40.6595629  61.3438006
  22.7825242  39.3819510  60.5401985  14.2184187  45.0408536  50.2746781
  13.5247658  44.6262489  49.7616735  14.9657178  45.0829073  49.6780200
  22.8634970  43.1398410  60.2290976  22.3802052  43.9398771  60.4354865
  22.9495909  43.1506355  59.2758420  16.1320929  44.9726790  48.1512796
  16.1091618  45.0714477  47.1994679  16.4421566  45.8191941  48.4729962
  18.7908307  47.0302945  52.2659410  19.7451561  46.9986887  52.1989342
  18.5920831  46.5693569  53.0809636  19.3807689  45.6004061  54.8330208
  20.2000578  46.0948140  54.8565045  19.6544497  44.6836029  54.8047775
  32.4888822  38.0161334  47.9112503  33.2649212  38.5057787  48.1837119
  31.7636956  38.4419389  48.3684372  17.1458536  52.5722565  49.2829608
  17.0113004  51.8122966  48.7167606  16.7290598  53.2963464  48.8158397
  28.2817499  47.7559488  38.2906183  28.9853349  47.9609491  38.9063839
  27.5580148  48.3236250  38.5555267  29.1115309  43.5069349  44.4108454
  29.0550511  43.9637901  43.5716086  29.6643652  42.7460034  44.2331296
  37.2332453  42.0355155  47.7429864  36.6732011  42.1048344  48.5161427
  36.6275957  41.8596139  47.0229361  20.3027662  53.4691882  49.4948051
  20.1860046  54.4137314  49.3926741  19.4820108  53.1665443  49.8833850
  30.1904197  48.1942017  40.3404643  31.0249800  47.7623216  40.1582118
  30.0288539  48.0224031  41.2681538  29.8450089  44.6974131  41.7060983
  29.7898893  44.5318402  40.7649427  29.2196144  45.4050164  41.8623172
  14.6342604  39.9342195  55.5322405  15.2801467  39.4241149  56.0209630
  14.4259755  40.6710877  56.1065830  27.1595996  47.0023043  61.0314546
  28.0287156  47.1763695  60.6701180  26.6802747  47.8217459  60.9090275
  21.3282176  54.1220144  52.7103979  22.2309423  54.1543754  53.0270474
  21.1019546  53.1920594  52.7250315  23.0835778  52.8751130  49.3714058
  22.1331409  52.8752992  49.2578430  23.3868264  52.1283865  48.8550092
  18.9740095  37.0809812  59.6297419  19.8371556  36.7246617  59.8400744
  18.4005505  36.7423707  60.3172823  38.8188472  58.7111668  50.4359820
  39.4566882  58.5918416  49.7323160  38.7009315  59.6592512  50.4947772
  35.6278178  58.6639097  50.3721345  35.2896689  58.5480161  49.4841880
  36.4967946  58.2630262  50.3522351  31.4864994  60.5174573  46.3618236
  30.9229859  60.4264510  45.5934524  31.3717389  59.6974477  46.8420728
  36.1097961  59.8173948  56.3307550  36.0986602  59.4226747  55.4588054
  36.2718600  59.0840021  56.9241322  29.0329426  62.0125765  49.2002456
  29.8250717  61.6716589  48.7848756  29.2726076  62.1220740  50.1204610
  37.0664552  64.1845541  41.6732701  36.4152532  64.7699621  41.2866715
  37.8608915  64.7151736  41.7327738  30.9920179  61.2734678  42.0719835
  31.7651055  60.7263665  41.9332711  31.3445578  62.1378927  42.2834296
  32.8305222  62.6011060  55.2786734  32.5395088  63.5056691  55.1633401
  33.4662206  62.6427588  55.9930804  33.7561429  59.9787909  51.8688094
  34.3525001  59.7543931  51.1545057  33.8136400  59.2372654  52.4713542
  33.3286457  57.4327344  39.7038285  33.5811978  56.9108865  38.9421748
  32.3911016  57.2693489  39.8064969  38.3729740  56.4363122  47.5113028
  39.1592829  56.0182545  47.1603445  38.6368444  57.3409215  47.6794677
  38.5439817  61.8735973  42.2101685  37.9085650  61.9470599  42.9222590
  38.2137224  62.4629571  41.5320764  43.7738167  56.3738356  48.4146007
  44.5063339  55.8037572  48.6483836  43.0177523  55.9859956  48.8552512
  33.0482746  59.3355450  41.9062660  32.9319004  58.6600353  42.5743744
  33.1585006  58.8487824  41.0894813  35.3914287  58.7965597  45.6109349
  35.0272494  58.2696218  46.3222271  36.2481403  58.4064066  45.4375835
  41.2963588  50.0859930  52.8740615  40.9646912  50.9555341  52.6501830
  40.7009201  49.7696214  53.5534646  35.0319774  53.8255497  40.6070698
  35.1994176  54.6935733  40.9741169  34.8416943  53.9882778  39.6831987
  37.7895107  62.2872476  52.2736528  37.4895830  63.1897514  52.1652335
  37.4446167  62.0204659  53.1257681  31.2407589  58.7386272  48.3073232
  30.3158085  58.6062487  48.5150924  31.4892002  59.5180492  48.8043175
  41.1892251  54.8055016  49.9533965  40.2809128  54.7370424  49.6592726
  41.1379847  55.2826961  50.7815791  35.0108995  56.2813154  41.5917365
  34.8908620  56.7270205  42.4302845  34.3161583  56.6298472  41.0330903
  28.6016400  58.3819546  49.1417022  28.7308781  58.6354025  50.0556433
  27.9213851  58.9747254  48.8221677  32.7715887  69.0516796  45.2407496
  32.6939917  70.0024621  45.3195976  32.1677531  68.7062668  45.8982422
  35.2633117  56.2244661  57.8968863  34.4866451  56.7838582  57.8871727
  35.9023680  56.7101444  58.4183733  43.0553897  53.0071454  51.7311839
  42.4128278  53.3003987  51.0851634  42.5508826  52.8924375  52.5365036
  40.7094061  56.7534627  42.4197699  41.6211917  56.9862014  42.2445396
  40.2003708  57.3371672  41.8572777  33.5179489  59.0330115  57.4586830
  34.2594173  59.5715159  57.1821653  32.8116474  59.6596404  57.6158381
  38.9934829  61.1759255  56.0558991  39.4018185  60.7341666  55.3113624
  38.2712090  60.6011883  56.3093184  35.3465899  56.1131862  53.4292548
  36.1927094  56.5371276  53.5727197  35.2864536  55.4565486  54.1231111
  39.3163643  61.7360446  49.8111280  38.6872506  61.9006160  49.1087348
  38.9289305  62.1502055  50.5822244  43.1952875  62.6714884  47.1655644
  42.5103913  63.0513785  46.6152677  43.2796724  63.2810210  47.8987592
  38.4965344  53.7736230  55.0873722  38.2526276  54.5278291  54.5507997
  38.7725275  54.1521578  55.9220969  40.4503807  60.3174843  53.7650987
  40.6620702  60.9606603  53.0885368  40.4033555  59.4837159  53.2972917
  38.0530036  52.9292663  50.6687559  37.1914515  53.2273917  50.9604297
  38.0792470  53.1463062  49.7368592  34.8691605  61.4734854  47.0761365
  35.3329951  61.7522557  46.2865988  34.6048403  60.5718299  46.8934456
  31.7615686  61.0206335  50.0141128  32.3317043  61.4493604  49.3758613
  32.3523798  60.7388920  50.7125314  33.8060491  57.5958006  43.8850930
  34.5084535  58.0479050  44.3524857  33.4741120  56.9541825  44.5130823
  32.2540853  56.1869763  58.2602140  31.6239513  56.8686044  58.4937536
  32.1476941  56.0752845  57.3155278  27.5485825  55.8541559  49.1868064
  26.7584879  56.1099088  48.7108174  28.0397073  56.6689897  49.2920104
  41.5649635  63.1946798  51.9373345  42.3867078  62.7926985  51.6556026
  41.5612038  63.0915032  52.8889460  29.5000571  56.2186138  46.1451541
  28.7031734  56.3304832  46.6635036  29.2726163  56.5572790  45.2792431
  35.3306238  62.7430841  54.0934055  35.3950671  63.2051249  54.9292227
  34.6217162  62.1128206  54.2216365  25.8323528  56.1072049  51.6183055
  26.0831567  56.9919059  51.8840631  26.3683077  55.9276651  50.8458146
  49.6555628  59.5385547  48.2858316  48.9019336  58.9692945  48.1302321
  49.7903169  59.5048211  49.2328951  35.0454256  64.4098949  43.9613035
  34.9099931  65.2550485  44.3897883  35.5864068  64.6118227  43.1978969
  31.5321595  50.4890529  60.6227391  31.1388541  49.9356727  61.2975035
  32.3487736  50.8001107  61.0133908  28.4983653  61.9274387  44.5340961
  29.0108174  62.7217637  44.6846525  29.1506366  61.2300677  44.4674562
  30.3078538  65.0440143  46.6163714  30.4845166  65.9658108  46.4284698
  31.1035371  64.7298562  47.0458094  34.4489556  51.9048408  58.2147647
  35.1899270  52.5055561  58.1352110  34.6807479  51.1626046  57.6565690
  29.5930894  57.0904775  56.4925877  29.4784410  56.1890032  56.7932976
  28.7375412  57.3368472  56.1410693  36.6722732  65.0322515  58.0913378
  36.2286586  64.2458894  57.7734282  37.3339946  65.2201666  57.4257268
  31.4309853  66.5618317  52.6174056  31.9817279  66.4335380  51.8451050
  30.5921329  66.8613206  52.2668949  38.7703970  65.3125315  56.1194779
  38.7522446  66.1334196  55.6275048  39.6923890  65.1879391  56.3444920
  35.2277024  62.8269445  56.9618287  35.7605361  62.0657733  56.7317595
  34.6991106  62.5343097  57.7042442  38.3946719  47.9329511  52.4911929
  38.0510989  48.8231152  52.4151040  38.7625682  47.7431168  51.6281514
  26.4632570  60.2563041  45.3100531  27.3007792  60.6660050  45.0934239
  26.6410838  59.3162483  45.2800725  38.3597002  57.9238122  40.9984364
  37.8443626  58.6942727  41.2372751  38.0874311  57.2503258  41.6217426
  35.9444113  52.7687823  46.0569602  35.0885709  52.3794673  45.8775241
  36.3571065  52.8479783  45.1969388  37.4743260  50.3034166  50.4561162
  36.9708055  50.2664301  49.6428967  37.7673867  51.2126909  50.5157819
  33.7186146  50.3872896  49.4627344  34.5839142  50.1915704  49.1033233
  33.7863655  50.1583247  50.3896701  43.3331276  60.6770477  42.9337538
  42.5560719  60.3381636  42.4892700  44.0122757  60.6823100  42.2592503
  38.1483305  55.7965214  42.8244145  37.8433441  56.1111363  43.6754288
  39.1013747  55.8746634  42.8671478  36.5929737  61.9555437  44.4737099
  36.0651099  61.2208197  44.1610337  36.0917240  62.7330114  44.2277068
  41.5722583  60.1504458  49.5904146  40.9146258  60.8403719  49.6784274
  42.3762982  60.5400890  49.9338132  31.3248465  52.6175104  46.8343711
  31.8992217  52.3950285  46.1016904  31.9119447  52.6863798  47.5872312
  40.3828042  58.5048831  47.6408087  40.8959924  59.1378822  48.1429797
  41.0329266  57.9050026  47.2751447  31.6518052  54.6479565  40.8539596
  30.8155364  54.9854251  41.1748871  31.5122822  54.5128544  39.9166733
  33.6271132  49.4916353  45.5618780  32.9735545  49.1765370  44.9375395
  33.5851607  48.8692093  46.2878603  34.7382337  59.7735648  37.4772072
  33.8309399  59.5424901  37.6763221  35.2353369  58.9773267  37.6646054
  37.6450416  68.4833155  40.3968758  36.9712115  68.7864852  41.0053716
  38.0316238  69.2862235  40.0474215  36.8608873  55.9798286  49.8866428
  35.9431434  56.2013233  49.7288116  37.2769016  56.0544597  49.0278135
  37.6443921  57.3789702  45.0169108  38.3915740  57.8911099  44.7076230
  37.9135510  57.0573754  45.8773502  35.9170571  59.8748242  41.9996062
  35.0081790  59.5907275  42.0968532  35.9465655  60.2947321  41.1399369
  41.1489838  63.4854832  45.7687230  40.6952165  62.6445742  45.8252420
  40.5183805  64.1216230  46.1062010  40.0922758  54.4146818  46.9987897
  39.3545515  53.9024204  47.3298140  40.3449531  53.9747200  46.1871174
  39.5922777  65.3231329  46.7037048  39.8845752  65.8836386  45.9849414
  40.1021398  65.6159890  47.4590207  26.4858741  57.5953757  45.9811265
  26.2883141  57.0023117  45.2562331  25.9305405  57.2905967  46.6987203
  34.4655465  57.4876863  48.1005858  34.5204075  56.5350699  48.0248334
  33.6546667  57.6436302  48.5847156  35.6146659  61.4156986  39.3384141
  35.1766088  60.6992845  38.8789778  36.3557099  61.6433101  38.7769232
  32.4047825  56.1053923  45.8596237  31.5915690  56.4048093  46.2661429
  32.9006819  55.7109612  46.5770719  34.5556403  66.1011680  47.7930501
  34.5132581  66.3272526  46.8639033  35.4719101  65.8675054  47.9416302
  38.0022036  56.5695747  54.6911130  38.3571424  56.7967220  55.5505596
  38.6494168  56.9014124  54.0688386  43.7319773  59.6914183  45.3960459
  43.5937672  59.8815779  44.4681649  43.3755992  60.4533566  45.8528511
  31.8961899  53.6772278  51.4757472  32.5361279  53.5361037  50.7780435
  31.0639430  53.3906792  51.0996074  43.7589153  61.7590710  50.4071731
  44.1925660  61.6665999  51.2554785  44.4720734  61.7348211  49.7691747
  32.6722203  62.9774709  47.5892464  33.4662802  62.4825029  47.3875039
  31.9613896  62.4492572  47.2260170  37.4917048  65.3592804  51.9404832
  37.5454070  65.9283741  52.7082547  36.6231829  65.5294689  51.5758869
  28.9804967  57.1217790  43.6652217  28.0502555  57.0602246  43.8822179
  29.0762439  56.5993743  42.8688858  28.8990516  53.6472603  46.2530458
  29.1597333  54.5617937  46.1439619  29.7207688  53.1797046  46.4027071
  30.3715441  55.0610360  53.4229283  31.0438495  54.8527723  52.7741932
  29.5445228  54.8632446  52.9834515  44.6204703  61.8014411  52.9404616
  44.8140593  62.7060221  53.1863891  44.5205321  61.3421830  53.7743201
  36.2741013  51.6872301  55.4394944  35.6268928  52.3862251  55.3459420
  37.0442029  52.1208445  55.8071192  39.6819811  61.9521154  58.5145497
  39.5305318  61.7231705  57.5975581  39.6724491  62.9091755  58.5276842
  36.4505148  59.5253066  53.4991763  37.3797208  59.6764226  53.3260731
  36.0296178  59.6137087  52.6440410  35.2493479  63.5503731  51.2690301
  35.1104565  63.1822515  52.1416239  34.4608076  64.0651370  51.0974259
  35.8441631  68.6512827  42.6115838  36.0193387  68.1800870  43.4261460
  35.1574419  69.2778593  42.8397098  36.7998695  62.9285333  48.6579139
  36.4648527  62.8886103  49.5536789  36.3002640  62.2630049  48.1849549
  30.7742938  58.3352963  54.1831720  30.6362736  57.6033202  54.7843259
  31.6847862  58.2461864  53.9015908  39.7357886  60.2741368  38.9316199
  39.1187057  59.5488196  38.8349251  39.2674375  61.0350728  38.5883273
  33.4025239  58.0472923  53.6715400  34.1124858  57.4066115  53.6302018
  33.3594547  58.2985818  54.5941580  41.3912018  64.9840276  56.5921979
  41.3324564  64.2999496  55.9252562  41.7931536  65.7259266  56.1402605
  32.1154173  55.0338141  55.4911039  31.5791530  54.5828879  56.1432635
  31.5270882  55.1684050  54.7481503  31.5256432  54.4926792  38.0537503
  30.6485898  54.3715593  37.6899749  32.0014185  53.7012870  37.8016391
  41.3929425  62.9479860  54.8235959  40.5056204  62.6105782  54.9462357
  41.9627976  62.2162891  55.0604724  23.0458572  59.2803952  48.1479010
  23.7329612  58.9665682  47.5600025  22.8906701  60.1845316  47.8746261
  27.8493294  54.1694148  52.5764034  27.7651483  53.5619818  51.8414444
  27.0276001  54.6603167  52.5773530  34.9230579  67.6081312  51.7897202
  34.8500750  68.4136284  52.3016506  34.4807972  67.8073278  50.9645223
  34.7120358  66.8453082  45.3000023  33.9287880  67.3874763  45.3938248
  35.4113103  67.3627062  45.6994264  38.0217008  52.6547712  47.9434229
  38.5185708  51.9017674  47.6235299  37.2503990  52.6912029  47.3777438
  45.8746766  58.3588077  49.5852520  45.8636642  59.2412793  49.2146453
  45.0064145  58.0059628  49.3907057  37.3829262  67.5068146  53.9455360
  38.0957234  68.1415611  53.8731262  36.8919291  67.6032012  53.1295362
  39.1046789  61.4119399  45.5172652  38.1703068  61.5320862  45.3477356
  39.2823457  60.5091866  45.2532662  34.6051977  54.7965095  47.6705913
  34.2349765  54.2436135  48.3586819  35.1011069  54.1923228  47.1180913
  42.4919340  57.2536718  46.0522686  42.9579792  58.0864710  45.9782989
  42.9426841  56.7881700  46.7567945  32.4341176  65.2562590  54.7660931
  33.1350635  65.8899073  54.9190325  31.9636291  65.5977321  54.0056570
  40.5595571  63.5980540  43.0508838  40.8355415  63.4837134  43.9602712
  39.6900070  63.1998025  43.0121011  40.4636003  49.6217305  50.0913588
  39.5499083  49.8521532  50.2595794  40.8929104  49.7055749  50.9427620
  40.2342462  57.8107197  52.5913482  39.5813912  58.0583105  51.9365934
  40.6122841  56.9971336  52.2575959  37.1949635  67.8466891  46.6941652
  37.3772030  67.0288546  47.1569404  38.0182621  68.0634583  46.2566542
  37.5291801  66.7735076  43.9556700  38.0579567  66.2627530  43.3426862
  37.7920020  66.4577606  44.8202233  36.2830035  58.5527008  59.0779519
  35.6070672  58.4521138  59.7481894  37.1057668  58.3966222  59.5415516
  28.0308894  64.7898945  51.6992034  28.6162330  64.0442633  51.8319938
  27.8333732  65.1002902  52.5828698  30.8847549  67.8250192  46.7154476
  30.2157924  68.3096320  46.2318516  30.7460419  68.0719413  47.6297855
  22.6226548  57.3604545  50.4196477  22.6610648  56.8268136  51.2133595
  22.1166841  56.8339751  49.8007454  35.0252817  69.8593936  53.3137135
  35.5771125  70.0225557  54.0786220  35.3659011  70.4498374  52.6417160
  30.0017311  52.2069086  53.9159019  30.0658637  53.0683917  53.5036417
  29.9384431  51.5943087  53.1831378  29.4769583  54.2792218  57.5632054
  30.1041622  53.8969296  58.1769578  28.6197502  54.0606420  57.9287746
  39.8763692  64.6855193  59.1685789  40.4203596  65.2985152  58.6740744
  39.2950537  65.2434772  59.6852802  26.2535126  56.0868647  43.4950408
  26.5488567  55.1779326  43.4417462  25.3523162  56.0656387  43.1731411
  38.1621205  67.8075911  50.3000817  38.0372344  67.0065651  49.7911762
  38.8200296  68.3022105  49.8114787  29.7829373  54.1624644  49.4777957
  29.0615959  54.7760612  49.3385430  30.5722629  54.6982409  49.3994603
  40.2256113  65.6084931  51.9280367  39.2786449  65.4890283  51.8558694
  40.5738886  64.7207430  52.0106628  32.5855686  51.4979070  55.7518609
  33.1090088  51.7441367  56.5144918  32.3668020  52.3299105  55.3321746
  27.9822968  53.7682745  43.6189734  27.6535674  52.8880124  43.4364840
  28.3362338  53.7130414  44.5066123  37.2302546  65.4037648  48.1284719
  37.0827509  64.4754355  48.3092289  38.0556040  65.4257738  47.6441794
  31.0964791  54.0555715  43.9865211  31.4360863  54.5841636  43.2643820
  31.5436911  54.3936121  44.7623778  40.8336668  66.2266206  49.2149592
  41.7583216  66.0209068  49.0774043  40.6651972  65.9782608  50.1238933
  33.7908232  52.4392766  53.4368279  33.4505052  51.6400579  53.8388959
  33.0847238  52.7394476  52.8645113  34.4424703  49.5242078  51.8895602
  35.2650773  49.0502556  51.7674493  34.6862767  50.3032562  52.3894289
  33.0832938  52.5530336  42.1858504  33.8041300  52.9311589  41.6822221
  32.4598242  53.2719213  42.2893482  37.2264061  53.2575485  43.1216836
  37.4427675  54.1400123  42.8205665  36.7458128  52.8661699  42.3922478
  31.9663282  56.2161199  49.6987581  31.8207863  56.5301502  50.5911862
  31.4888486  56.8346099  49.1458480  33.8259665  53.2063747  49.7468471
  33.8121234  52.3104840  49.4100768  34.5432093  53.2134410  50.3806757
  35.6785796  53.6401087  51.7921598  35.4203574  54.5618157  51.7905928
  35.1470836  53.2431521  52.4822062  40.6231984  66.7451874  44.5711683
  40.7968862  66.1798296  43.8185536  41.1160876  67.5452769  44.3891173
  26.4408944  58.7566543  52.6375242  25.8962412  59.5326351  52.7695516
  27.3188294  59.1037347  52.4794364  33.2296561  52.0878127  45.0156041
  33.3512472  51.1594773  45.2146928  32.9398603  52.1016813  44.1034356
  36.0987751  49.7733037  48.1522761  36.1209448  49.8372370  47.1974740
  36.5155810  48.9337546  48.3463267  46.4771376  59.5088297  46.1901983
  46.9202522  58.7595622  45.7921106  45.5997886  59.4998433  45.8075715
  41.6107157  66.0618638  41.6708582  42.3058062  66.6825331  41.8895896
  41.9530307  65.2113990  41.9460960  27.2274966  57.8836439  55.5305399
  26.4856702  58.0319075  56.1170029  26.9067710  58.1444705  54.6672148
  43.5098580  63.5118344  43.1995912  44.0349904  63.8505617  42.4745232
  43.4220933  62.5765359  43.0159047  35.1718629  67.4252417  55.3285789
  35.4805755  67.1801564  56.2008489  35.9694111  67.6299056  54.8404659
  35.1939241  69.5790327  47.5591166  34.7544231  69.0866706  48.2524022
  35.9447358  69.0363295  47.3183241  27.6731580  65.7701868  47.5615794
  28.4989600  65.4705640  47.1814437  27.3225632  65.0009490  48.0105582
  32.6413113  65.1228336  49.6313467  32.0193122  64.4599041  49.3315695
  33.3117980  65.1489468  48.9487115  25.8740185  63.6888194  48.5204727
  25.0372093  63.2610369  48.3388728  25.8463830  63.8820638  49.4575518
  32.7137640  53.6010124  59.2245973  32.7625796  54.4772247  58.8423743
  33.2560155  53.0587517  58.6517616  43.1992486  64.1451247  58.5047110
  42.4088030  64.1275386  57.9651610  42.9625841  64.6839541  59.2596147
  43.3190361  60.9943714  55.8179839  43.3688366  60.8293721  56.7595362
  43.2104285  60.1270973  55.4277720  32.2026620  63.6732260  43.1071928
  32.3514740  64.3567724  42.4538601  33.0093063  63.6537350  43.6221384
  40.6094124  56.9774642  57.1339146  41.5103986  56.8381107  56.8423143
  40.6842098  57.1429097  58.0737323  34.9436929  54.3541497  55.9792332
  34.0740238  54.6475063  55.7074920  35.1796409  54.9381942  56.6999596
  44.8208558  63.4140655  56.0621860  44.5293366  63.7770636  56.8985321
  44.2080689  62.7007664  55.8835192  46.0204240  60.9793535  48.5824431
  46.8551132  61.4183339  48.7461991  46.1563369  60.5032188  47.7632676
  43.0695746  58.5373270  54.5301918  43.5449868  58.7300916  53.7220770
  42.1461312  58.5932456  54.2845302  29.9579253  59.6997437  44.1132997
  29.7125295  58.7959767  44.3113207  30.1275167  59.7014588  43.1712475
  37.6475963  50.5721114  53.4957752  38.1657907  51.3082140  53.1704241
  37.2931095  50.8785107  54.3304511  29.2274900  55.4325795  41.6119158
  28.5344145  55.5070150  40.9559194  28.9826652  54.6686138  42.1340675
  37.8988557  46.9921396  49.0158649  38.1790311  46.3244585  49.6419075
  38.6839164  47.1850492  48.5033313  35.7022025  66.1680390  40.5783675
  35.1295992  66.7870577  40.1254147  36.2754819  66.7179752  41.1123597
  41.7697415  55.4139030  52.7630224  42.7214838  55.5137128  52.7842448
  41.6000866  54.6217299  53.2728308  39.7911795  52.4994613  52.9489625
  39.1961727  52.7799626  52.2536114  39.5061491  52.9888514  53.7206366
  38.9219285  66.4517540  41.7092257  39.8549958  66.3863102  41.9125133
  38.8342498  67.2873807  41.2506790  41.5507302  65.7683410  38.6696205
  41.4720933  65.4343274  39.5631963  42.3716969  66.2605178  38.6687677
  44.2485493  58.6345150  51.8772524  44.2161813  57.6961150  52.0632207
  44.8586117  58.7129186  51.1438349  36.0868824  57.5041203  37.9199728
  37.0327929  57.3747411  37.9888146  35.7083069  56.7655865  38.3969156
  44.3979982  55.4256193  51.9230807  43.8819030  54.6414650  51.7360736
  45.2819930  55.0974910  52.0877326  50.0662043  59.6961157  51.0178560
  50.7965431  59.4346445  51.5786264  49.4568988  58.9589879  51.0580628
  48.1477340  57.8369019  51.6153012  47.4210504  57.7024984  51.0069503
  47.7324627  58.1445848  52.4209730  35.9707516  61.5558949  59.3800385
  36.8910526  61.7337548  59.5740431  35.9357099  60.6114994  59.2280084
  34.2711741  55.4291179  37.8554613  33.3643196  55.1324292  37.9317327
  34.5487722  55.1320997  36.9888899  25.1889681  56.7497543  48.3053659
  24.8692466  55.8962851  48.0128033  24.6423110  56.9646121  49.0611627
  28.9669589  59.4659984  52.0223166  29.1855599  60.3977091  52.0411200
  29.3795363  59.1067958  52.8077970  35.8873807  49.9728069  44.0098854
  35.0774535  49.6275154  44.3854100  36.5758224  49.6635613  44.5986466
  37.8164355  49.0506116  45.6323151  38.3695394  49.4701569  46.2913174
  38.0534441  48.1241864  45.6746107  33.8397454  55.0393189  61.4125915
  33.7394181  55.9887546  61.3438006  33.6218996  54.7111428  60.5401985
  33.0410526  52.2878114  37.9966592  33.9029690  52.6133013  38.2562409
  33.2260870  51.5009610  37.4839658  25.0577941  60.3700454  50.2746781
  24.3641413  59.9554407  49.7616735  25.8050932  60.4120991  49.6780200
  41.1943162  51.1606641  45.1401815  40.6141831  51.8191445  44.7579868
  40.9279095  50.3383985  44.7289233  39.6446729  50.5611698  47.3423135
  40.1446507  50.6728233  46.5337454  40.2882336  50.2572751  47.9823944
  33.7028724  58.4690328  60.2290976  33.2195806  59.2690688  60.4354865
  33.7889663  58.4798273  59.2758420  26.9714684  60.3018708  48.1512796
  26.9485372  60.4006395  47.1994679  27.2815320  61.1483859  48.4729962
  29.6302062  62.3594863  52.2659410  30.5845315  62.3278805  52.1989342
  29.4314585  61.8985487  53.0809636  30.2201444  60.9295979  54.8330208
  31.0394333  61.4240058  54.8565045  30.4938252  60.0127947  54.8047775
  39.9768040  53.3206731  44.1958163  39.0893895  53.6056382  43.9778358
  40.3922029  53.1600495  43.3485440  43.3282576  53.3453252  47.9112503
  44.1042966  53.8349705  48.1837119  42.6030710  53.7711306  48.3684372
  45.7655135  54.0580871  48.9686443  46.3599626  53.8176607  48.2579751
  45.8381719  53.3388002  49.5959980  27.9852291  67.9014482  49.2829608
  27.8506759  67.1414883  48.7167606  27.5684353  68.6255382  48.8158397
  39.1211254  63.0851406  38.2906183  39.8247104  63.2901408  38.9063839
  38.3973902  63.6528168  38.5555267  39.9509064  58.8361267  44.4108454
  39.8944265  59.2929819  43.5716086  40.5037406  58.0751952  44.2331296
  43.7613870  54.6250999  45.2358573  43.5050804  54.2247635  46.0666781
  43.1366738  55.3394793  45.1108712  48.0726208  57.3647072  47.7429864
  47.5125766  57.4340262  48.5161427  47.4669711  57.1888057  47.0229361
  31.1421416  68.7983799  49.4948051  31.0253801  69.7429232  49.3926741
  30.3213863  68.4957361  49.8833850  41.0297951  63.5233935  40.3404643
  41.8643555  63.0915134  40.1582118  40.8682294  63.3515949  41.2681538
  40.6843843  60.0266048  41.7060983  40.6292647  59.8610320  40.7649427
  40.0589898  60.7342081  41.8623172  25.4736358  55.2634113  55.5322405
  26.1195222  54.7533067  56.0209630  25.2653509  56.0002794  56.1065830
  37.9989750  62.3314960  61.0314546  38.8680910  62.5055612  60.6701180
  37.5196502  63.1509377  60.9090275  33.9939969  49.5274157  41.2846301
  33.9818638  50.4715997  41.4414572  34.8863391  49.3444303  40.9905762
  32.1675931  69.4512061  52.7103979  33.0703177  69.4835671  53.0270474
  31.9413301  68.5212512  52.7250315  33.9229533  68.2043048  49.3714058
  32.9725164  68.2044909  49.2578430  34.2262019  67.4575782  48.8550092
  29.8133849  52.4101730  59.6297419  30.6765311  52.0538535  59.8400744
  29.2399260  52.0715625  60.3172823  49.6582226  74.0403586  50.4359820
  50.2960636  73.9210334  49.7323160  49.5403069  74.9884430  50.4947772
  46.4671932  73.9931014  50.3721345  46.1290444  73.8772079  49.4841880
  47.3361701  73.5922179  50.3522351  44.5955183  75.3079826  51.8688094
  45.1918756  75.0835849  51.1545057  44.6530155  74.5664572  52.4713542
  44.1680212  72.7619262  39.7038285  44.4205732  72.2400783  38.9421748
  43.2304771  72.5985407  39.8064969  49.2123495  71.7655040  47.5113028
  49.9986584  71.3474463  47.1603445  49.4762199  72.6701132  47.6794677
  54.6131922  71.7030273  48.4146007  55.3457094  71.1329490  48.6483836
  53.8571277  71.3151874  48.8552512  43.8876501  74.6647368  41.9062660
  43.7712759  73.9892271  42.5743744  43.9978760  74.1779742  41.0894813
  46.2308041  74.1257515  45.6109349  45.8666249  73.5988136  46.3222271
  47.0875157  73.7355984  45.4375835  52.1357342  65.4151847  52.8740615
  51.8040667  66.2847258  52.6501830  51.5402955  65.0988131  53.5534646
  45.8713528  69.1547414  40.6070698  46.0387931  70.0227651  40.9741169
  45.6810698  69.3174696  39.6831987  42.0801343  74.0678190  48.3073232
  41.1551840  73.9354404  48.5150924  42.3285756  74.8472409  48.8043175
  52.0286005  70.1346933  49.9533965  51.1202883  70.0662342  49.6592726
  51.9773601  70.6118878  50.7815791  45.8502749  71.6105072  41.5917365
  45.7302375  72.0562123  42.4302845  45.1555338  71.9590390  41.0330903
  39.4410154  73.7111464  49.1417022  39.5702535  73.9645943  50.0556433
  38.7607605  74.3039172  48.8221677  53.8947652  68.3363372  51.7311839
  53.2522032  68.6295905  51.0851634  53.3902580  68.2216292  52.5365036
  51.5487815  72.0826545  42.4197699  52.4605672  72.3153932  42.2445396
  51.0397463  72.6663589  41.8572777  46.1859653  71.4423780  53.4292548
  47.0320848  71.8663193  53.5727197  46.1258291  70.7857404  54.1231111
  48.8923790  68.2584581  50.6687559  48.0308269  68.5565835  50.9604297
  48.9186225  68.4754980  49.7368592  45.7085360  76.8026772  47.0761365
  46.1723705  77.0814475  46.2865988  45.4442158  75.9010216  46.8934456
  44.6454246  72.9249924  43.8850930  45.3478289  73.3770968  44.3524857
  44.3134874  72.2833743  44.5130823  38.3879580  71.1833477  49.1868064
  37.5978634  71.4391005  48.7108174  38.8790827  71.9981815  49.2920104
  40.3394325  71.5478056  46.1451541  39.5425488  71.6596750  46.6635036
  40.1119917  71.8864708  45.2792431  36.6717283  71.4363967  51.6183055
  36.9225321  72.3210977  51.8840631  37.2076831  71.2568569  50.8458146
  49.2340474  63.2621428  52.4911929  48.8904743  64.1523070  52.4151040
  49.6019436  63.0723086  51.6281514  49.1990757  73.2530040  40.9984364
  48.6837380  74.0234644  41.2372751  48.9268065  72.5795176  41.6217426
  46.7837868  68.0979740  46.0569602  45.9279464  67.7086591  45.8775241
  47.1964819  68.1771701  45.1969388  48.3137014  65.6326084  50.4561162
  47.8101810  65.5956219  49.6428967  48.6067621  66.5418826  50.5157819
  44.5579900  65.7164813  49.4627344  45.4232897  65.5207622  49.1033233
  44.6257409  65.4875165  50.3896701  48.9877060  71.1257132  42.8244145
  48.6827195  71.4403281  43.6754288  49.9407502  71.2038552  42.8671478
  42.1642219  67.9467021  46.8343711  42.7385971  67.7242203  46.1016904
  42.7513202  68.0155716  47.5872312  51.2221796  73.8340748  47.6408087
  51.7353678  74.4670740  48.1429797  51.8723020  73.2341944  47.2751447
  42.4911806  69.9771482  40.8539596  41.6549119  70.3146169  41.1748871
  42.3516576  69.8420462  39.9166733  44.4664887  64.8208270  45.5618780
  43.8129299  64.5057287  44.9375395  44.4245361  64.1984011  46.2878603
  45.5776092  75.1027565  37.4772072  44.6703154  74.8716819  37.6763221
  46.0747124  74.3065185  37.6646054  47.7002627  71.3090204  49.8866428
  46.7825189  71.5305151  49.7288116  48.1162771  71.3836514  49.0278135
  48.4837675  72.7081619  45.0169108  49.2309494  73.2203017  44.7076230
  48.7529265  72.3865672  45.8773502  46.7564325  75.2040160  41.9996062
  45.8475545  74.9199193  42.0968532  46.7859409  75.6239239  41.1399369
  50.9316512  69.7438736  46.9987897  50.1939269  69.2316122  47.3298140
  51.1843286  69.3039117  46.1871174  51.0328140  62.5214988  47.5929667
  51.3387016  61.6612351  47.3055582  51.7580744  63.1132608  47.3928661
  37.3252496  72.9245674  45.9811265  37.1276895  72.3315035  45.2562331
  36.7699160  72.6197884  46.6987203  45.3049219  72.8168781  48.1005858
  45.3597829  71.8642617  48.0248334  44.4940421  72.9728220  48.5847156
  46.4540413  76.7448904  39.3384141  46.0159843  76.0284763  38.8789778
  47.1950854  76.9725019  38.7769232  43.2441579  71.4345840  45.8596237
  42.4309445  71.7340011  46.2661429  43.7400573  71.0401529  46.5770719
  42.7355654  69.0064196  51.4757472  43.3755033  68.8652955  50.7780435
  41.9033185  68.7198709  51.0996074  39.8198721  72.4509708  43.6652217
  38.8896309  72.3894164  43.8822179  39.9156193  71.9285661  42.8688858
  39.7384270  68.9764521  46.2530458  39.9991088  69.8909854  46.1439619
  40.5601443  68.5088964  46.4027071  41.2109196  70.3902278  53.4229283
  41.8832249  70.1819640  52.7741932  40.3838982  70.1924364  52.9834515
  47.1134768  67.0164219  55.4394944  46.4662683  67.7154169  55.3459420
  47.8835783  67.4500363  55.8071192  41.6136693  73.6644881  54.1831720
  41.4756491  72.9325120  54.7843259  42.5241616  73.5753781  53.9015908
  42.9547928  70.3630058  55.4911039  42.4185285  69.9120797  56.1432635
  42.3664636  70.4975967  54.7481503  42.3650187  69.8218710  38.0537503
  41.4879653  69.7007511  37.6899749  42.8407940  69.0304788  37.8016391
  38.6887049  69.4986066  52.5764034  38.6045238  68.8911736  51.8414444
  37.8669755  69.9895084  52.5773530  48.8610763  67.9839630  47.9434229
  49.3579462  67.2309592  47.6235299  48.0897744  68.0203946  47.3777438
  45.4445731  70.1257013  47.6705913  45.0743519  69.5728053  48.3586819
  45.9404824  69.5215146  47.1180913  51.3029758  64.9509223  50.0913588
  50.3892837  65.1813450  50.2595794  51.7322859  65.0347667  50.9427620
  40.8411065  67.5361003  53.9159019  40.9052392  68.3975834  53.5036417
  40.7778185  66.9235005  53.1831378  37.0928880  71.4160565  43.4950408
  37.3882322  70.5071243  43.4417462  36.1916916  71.3948304  43.1731411
  40.6223127  69.4916562  49.4777957  39.9009713  70.1052529  49.3385430
  41.4116383  70.0274326  49.3994603  43.4249441  66.8270988  55.7518609
  43.9483843  67.0733285  56.5144918  43.2061774  67.6591023  55.3321746
  38.8216722  69.0974663  43.6189734  38.4929428  68.2172042  43.4364840
  39.1756093  69.0422331  44.5066123  41.9358545  69.3847632  43.9865211
  42.2754618  69.9133554  43.2643820  42.3830666  69.7228039  44.7623778
  44.6301986  67.7684683  53.4368279  44.2898806  66.9692496  53.8388959
  43.9240992  68.0686394  52.8645113  45.2818458  64.8533996  51.8895602
  46.1044527  64.3794474  51.7674493  45.5256521  65.6324479  52.3894289
  43.9226692  67.8822254  42.1858504  44.6435055  68.2603507  41.6822221
  43.2991996  68.6011131  42.2893482  48.0657815  68.5867403  43.1216836
  48.2821430  69.4692041  42.8205665  47.5851882  68.1953616  42.3922478
  42.8057037  71.5453116  49.6987581  42.6601617  71.8593419  50.5911862
  42.3282240  72.1638017  49.1458480  44.6653419  68.5355664  49.7468471
  44.6514988  67.6396758  49.4100768  45.3825848  68.5426328  50.3806757
  46.5179550  68.9693004  51.7921598  46.2597328  69.8910075  51.7905928
  45.9864591  68.5723439  52.4822062  44.0690315  67.4170045  45.0156041
  44.1906227  66.4886691  45.2146928  43.7792358  67.4308730  44.1034356
  46.9381506  65.1024955  48.1522761  46.9603203  65.1664288  47.1974740
  47.3549565  64.2629464  48.3463267  38.0668721  73.2128357  55.5305399
  37.3250457  73.3610992  56.1170029  37.7461465  73.4736623  54.6672148
  40.7973007  75.0289355  44.1132997  40.5519049  74.1251685  44.3113207
  40.9668922  75.0306505  43.1712475  48.4869717  65.9013031  53.4957752
  49.0051661  66.6374058  53.1704241  48.1324850  66.2077025  54.3304511
  40.0668655  70.7617712  41.6119158  39.3737900  70.8362067  40.9559194
  39.8220407  69.9978056  42.1340675  48.7382311  62.3213314  49.0158649
  49.0184065  61.6536503  49.6419075  49.5232918  62.5142409  48.5033313
  50.6305549  67.8286531  52.9489625  50.0355481  68.1091544  52.2536114
  50.3455246  68.3180432  53.7206366  46.9262578  72.8333120  37.9199728
  47.8721683  72.7039329  37.9888146  46.5476823  72.0947782  38.3969156
  52.8984463  64.4989126  47.8826620  52.7009284  64.1904215  48.7669951
  53.5084168  65.2250765  48.0124549  45.1105496  70.7583097  37.8554613
  44.2036951  70.4616209  37.9317327  45.3881477  70.4612915  36.9888899
  36.0283436  72.0789460  48.3053659  35.7086220  71.2254768  48.0128033
  35.4816864  72.2938038  49.0611627  46.7267561  65.3019986  44.0098854
  45.9168290  64.9567071  44.3854100  47.4151978  64.9927530  44.5986466
  48.6558110  64.3798033  45.6323151  49.2089148  64.7993487  46.2913174
  48.8928196  63.4533781  45.6746107  43.8804280  67.6170032  37.9966592
  44.7423444  67.9424930  38.2562409  44.0654624  66.8301528  37.4839658
  52.0336917  66.4898558  45.1401815  51.4535586  67.1483362  44.7579868
  51.7672849  65.6675903  44.7289233  50.4840483  65.8903616  47.3423135
  50.9840261  66.0020151  46.5337454  51.1276091  65.5864669  47.9823944
  50.8161795  68.6498649  44.1958163  49.9287650  68.9348299  43.9778358
  51.2315784  68.4892412  43.3485440  54.1676331  68.6745170  47.9112503
  54.9436721  69.1641622  48.1837119  53.4424465  69.1003224  48.3684372
  56.6048889  69.3872789  48.9686443  57.1993380  69.1468525  48.2579751
  56.6775473  68.6679920  49.5959980  50.7902818  74.1653185  44.4108454
  50.7338020  74.6221736  43.5716086  51.3431161  73.4043869  44.2331296
  54.6007624  69.9542917  45.2358573  54.3444559  69.5539552  46.0666781
  53.9760492  70.6686711  45.1108712  36.3130113  70.5926030  55.5322405
  36.9588976  70.0824984  56.0209630  36.1047264  71.3294712  56.1065830
  44.8333723  64.8566075  41.2846301  44.8212393  65.8007915  41.4414572
  45.7257145  64.6736220  40.9905762  48.6485843  61.4508852  45.5392238
  47.8818238  60.8967338  45.6848920  49.0596548  61.5230720  46.4006390
  17.1400964   5.0589956  37.1605127  17.7779374   4.9396703  36.4568467
  17.0221807   6.0070800  37.2193079  13.9490670   5.0117384  37.0966652
  13.6109182   4.8958449  36.2087186  14.8180438   4.6108549  37.0767658
   9.8077486   6.8652860  33.0863542   9.2442351   6.7742797  32.3179830
   9.6929881   6.0452765  33.5666035  14.4310453   6.1652236  43.0552857
  14.4199094   5.7705034  42.1833361  14.5931093   5.4318308  43.6486628
   7.3541918   8.3604052  35.9247763   8.1463210   8.0194876  35.5094062
   7.5938568   8.4699027  36.8449916  15.3877045  10.5323828  28.3978007
  14.7365024  11.1177908  28.0112021  16.1821407  11.0630023  28.4573045
   9.3132672   7.6212965  28.7965142  10.0863548   7.0741952  28.6578018
   9.6658071   8.4857214  29.0079603  11.1517714   8.9489347  42.0032041
  10.8607580   9.8534978  41.8878707  11.7874699   8.9905875  42.7176111
  12.0773921   6.3266196  38.5933401  12.6737493   6.1022218  37.8790364
  12.1348893   5.5850941  39.1958849  11.6498950   3.7805631  26.4283592
  11.9024470   3.2587152  25.6667055  10.7123509   3.6171777  26.5310275
  16.6942232   2.7841410  34.2358335  17.4805322   2.3660833  33.8848752
  16.9580937   3.6887502  34.4039983  16.8652310   8.2214260  28.9346992
  16.2298143   8.2948886  29.6467896  16.5349716   8.8107859  28.2566071
  22.0950660   2.7216643  35.1391313  22.8275831   2.1515860  35.3729143
  21.3390015   2.3338243  35.5797819  11.3695238   5.6833737  28.6307967
  11.2531496   5.0078641  29.2989051  11.4797498   5.1966111  27.8140120
  13.7126779   5.1443884  32.3354656  13.3484986   4.6174505  33.0467577
  14.5693895   4.7542353  32.1621141  16.1107599   8.6350763  38.9981835
  15.8108322   9.5375802  38.8897642  15.7658659   8.3682946  39.8502988
  19.5104743   1.1533303  36.6779272  18.6021621   1.0848711  36.3838033
  19.4592339   1.6305248  37.5061098  13.3321487   2.6291441  28.3162671
  13.2121112   3.0748492  29.1548151  12.6374075   2.9776759  27.7576209
  11.0928379  15.3995083  31.9652802  11.0152409  16.3502908  32.0441283
  10.4890023  15.0540956  32.6227729  13.5845609   2.5722949  44.6214169
  12.8078943   3.1316869  44.6117034  14.2236172   3.0579732  45.1429039
  21.3766390  -0.6450259  38.4557146  20.7340770  -0.3517725  37.8096941
  20.8721318  -0.7597338  39.2610343  19.0306553   3.1012915  29.1443005
  19.9424409   3.3340301  28.9690703  18.5216200   3.6849959  28.5818084
  11.8391981   5.3808402  44.1832136  12.5806666   5.9193446  43.9066960
  11.1328967   6.0074691  44.3403688  17.3147321   7.5237542  42.7804298
  17.7230677   7.0819953  42.0358930  16.5924582   6.9490170  43.0338491
  13.6678391   2.4610149  40.1537855  14.5139586   2.8849563  40.2972504
  13.6077029   1.8043774  40.8476418  17.6376136   8.0838733  36.5356587
  17.0084998   8.2484447  35.8332655  17.2501798   8.4980343  37.3067551
  21.5165367   9.0193171  33.8900950  20.8316406   9.3992072  33.3397984
  21.6009217   9.6288498  34.6232898  16.8177836   0.1214518  41.8119028
  16.5738768   0.8756578  41.2753304  17.0937767   0.4999865  42.6466275
  18.7716299   6.6653130  40.4896294  18.9833194   7.3084890  39.8130675
  18.7246047   5.8315447  40.0218224  13.1904097   7.8213141  33.8006672
  13.6542443   8.1000844  33.0111294  12.9260896   6.9196586  33.6179762
  10.0828179   7.3684623  36.7386435  10.6529536   7.7971891  36.1003920
  10.6736290   7.0867207  37.4370621  12.1272983   3.9436294  30.6096237
  12.8297027   4.3957337  31.0770163  11.7953612   3.3020112  31.2376130
  19.8862127   9.5425085  38.6618651  20.7079571   9.1405273  38.3801333
  19.8824530   9.4393320  39.6134767  13.6518730   9.0909129  40.8179362
  13.7163163   9.5529536  41.6537534  12.9429654   8.4606494  40.9461672
  27.9768120   5.8863834  35.0103623  27.2231828   5.3171232  34.8547627
  28.1115661   5.8526498  35.9574257  13.3666748  10.7577236  30.6858342
  13.2312423  11.6028772  31.1143190  13.9076561  10.9596514  29.9224276
   6.8196146   8.2752674  31.2586267   7.3320666   9.0695924  31.4091832
   7.4718858   7.5778965  31.1919869   8.6291030  11.3918430  33.3409020
   8.8057659  12.3136395  33.1530004   9.4247864  11.0776850  33.7703400
  14.9935224  11.3800803  44.8158684  14.5499079  10.5937181  44.4979589
  15.6552438  11.5679953  44.1502575   9.7522346  12.9096604  39.3419363
  10.3029771  12.7813668  38.5696357   8.9133822  13.2091493  38.9914256
  17.0916463  11.6603603  42.8440085  17.0734938  12.4812484  42.3520355
  18.0136383  11.5357678  43.0690227  13.5489517   9.1747732  43.6863594
  14.0817854   8.4136020  43.4562902  13.0203598   8.8821384  44.4287748
  16.6809494   4.2716409  27.7229671  16.1656118   5.0421014  27.9618058
  16.4086803   3.5981545  28.3462732  21.6543769   7.0248764  29.6582844
  20.8773211   6.6859923  29.2138006  22.3335250   7.0301387  28.9837809
  16.4695798   2.1443501  29.5489452  16.1645933   2.4589650  30.3999595
  17.4226240   2.2224921  29.5916785  14.9142229   8.3033725  31.1982406
  14.3863591   7.5686484  30.8855643  14.4129732   9.0808401  30.9522374
  19.8935075   6.4982745  36.3149452  19.2358750   7.1882006  36.4029581
  20.6975475   6.8879177  36.6583439  18.7040534   4.8527118  34.3653394
  19.2172416   5.4857110  34.8675104  19.3541758   4.2528313  33.9996754
  13.0594830   6.1213935  24.2017379  12.1521891   5.8903188  24.4008528
  13.5565862   5.3251554  24.3891360  15.9662908  14.8311442  27.1214065
  15.2924607  15.1343139  27.7299023  16.3528730  15.6340522  26.7719522
  15.1821365   2.3276573  36.6111734  14.2643926   2.5491520  36.4533423
  15.5981509   2.4022884  35.7523442  15.9656413   3.7267989  31.7414415
  16.7128232   4.2389386  31.4321537  16.2348002   3.4052042  32.6018808
  14.2383063   6.2226530  28.7241369  13.3294282   5.9385563  28.8213839
  14.2678147   6.6425608  27.8644676  19.4702330   9.8333119  32.4932537
  19.0164658   8.9924029  32.5497727  18.8396297  10.4694518  32.8307317
  18.4135250   0.7625105  33.7233204  17.6758007   0.2502491  34.0543447
  18.6662024   0.3225487  32.9116481  17.9135270  11.6709616  33.4282355
  18.2058244  12.2314673  32.7094720  18.4233890  11.9638177  34.1835514
  12.7867957   3.8355150  34.8251164  12.8416567   2.8828987  34.7493641
  11.9759159   3.9914589  35.3092463  13.9359151   7.7635273  26.0629448
  13.4978581   7.0471132  25.6035085  14.6769592   7.9911388  25.5014539
  12.8768895  12.4489967  34.5175808  12.8345074  12.6750813  33.5884340
  13.7931594  12.2153342  34.6661609  16.3234529   2.9174035  41.4156437
  16.6783916   3.1445508  42.2750903  16.9706660   3.2492411  40.7933692
  22.0532266   6.0392470  32.1205766  21.9150164   6.2294066  31.1926955
  21.6968484   6.8011853  32.5773817  22.0801645   8.1068997  37.1317038
  22.5138152   8.0144287  37.9800092  22.7933226   8.0826498  36.4937054
  10.9934696   9.3252996  34.3137771  11.7875294   8.8303316  34.1120346
  10.2826388   8.7970859  33.9505476  15.8129540  11.7071092  38.6650138
  15.8666562  12.2762028  39.4327854  14.9444322  11.8772977  38.3004175
  22.9417195   8.1492698  39.6649923  23.1353085   9.0538509  39.9109198
  22.8417813   7.6900117  40.4988508  18.0032303   8.2999441  45.2390804
  17.8517810   8.0709993  44.3220887  17.9936983   9.2570042  45.2522149
  14.7717640   5.8731354  40.2237070  15.7009700   6.0242513  40.0506037
  14.3508670   5.9615374  39.3685717  13.5705972   9.8982018  37.9935608
  13.4317057   9.5300802  38.8661546  12.7820568  10.4129657  37.8219566
  14.1654124  14.9991114  29.3361144  14.3405879  14.5279158  30.1506767
  13.4786912  15.6256881  29.5642405  15.1211187   9.2763621  35.3824445
  14.7861019   9.2364391  36.2782095  14.6215132   8.6108337  34.9094856
  18.0570378   6.6219655  25.6561505  17.4399549   5.8966483  25.5594558
  17.5886867   7.3829015  25.3128579  11.7237731   4.3951210  40.3960706
  12.4337350   3.7544402  40.3547325  11.6807040   4.6464105  41.3186887
  19.7124510  11.3318563  43.3167286  19.6537056  10.6477784  42.6497869
  20.1144028  12.0737553  42.8647912   8.7315209  18.1480477  36.1101004
   8.9711807  18.7799001  36.7880023   7.8884405  17.7968517  36.3966364
  19.7141917   9.2958147  41.5481265  18.8268696   8.9584069  41.6707664
  20.2840468   8.5641179  41.7850031  13.2443071  13.9559600  38.5142508
  13.1713242  14.7614571  39.0261813  12.8020464  14.1551565  37.6890530
  13.0332850  13.1931370  32.0245330  12.2500372  13.7353050  32.1183554
  13.7325596  13.7105349  32.4239571  24.1959258   4.7066365  36.3097827
  24.1849134   5.5891080  35.9391760  23.3276637   4.3537916  36.1152364
  15.7041754  13.8546434  40.6700667  16.4169727  14.4893899  40.5976569
  15.2131783  13.9510300  39.8540669  17.4259281   7.7597686  32.2417959
  16.4915560   7.8799149  32.0722663  17.6035950   6.8570153  31.9777969
  20.8131833   3.6015006  32.7767993  21.2792285   4.4342997  32.7028296
  21.2639333   3.1359987  33.4813251  10.7553668  11.6040877  41.4906238
  11.4563127  12.2377360  41.6435632  10.2848783  11.9455609  40.7301877
  18.8808064   9.9458827  29.7754145  19.1567908   9.8315422  30.6848019
  18.0112562   9.5476312  29.7366318  18.5554954   4.1585485  39.3158788
  17.9026404   4.4061392  38.6611241  18.9335334   3.3449623  38.9821266
  15.5162128  14.1945178  33.4186959  15.6984522  13.3766834  33.8814711
  16.3395114  14.4112870  32.9811849  15.8504293  13.1213363  30.6802007
  16.3792060  12.6105817  30.0672169  16.1132513  12.8055893  31.5447540
  14.6042527   4.9005296  45.8024825  13.9283164   4.7999425  46.4727201
  15.4270161   4.7444509  46.2660823   6.3521386  11.1377232  38.4237341
   6.9374823  10.3920920  38.5565245   6.1546224  11.4481189  39.3074004
   9.2060041  14.1728480  33.4399783   8.5370416  14.6574607  32.9563823
   9.0672911  14.4197700  34.3543161  13.3465310  16.2072223  40.0382441
  13.8983618  16.3703845  40.8031527  13.6871503  16.7976661  39.3662466
  18.1976184  11.0333481  45.8931096  18.7416088  11.6463439  45.3986051
  17.6163029  11.5913059  46.4098109  16.4833697  14.1554199  37.0246123
  16.3584836  13.3543938  36.5157069  17.1412788  14.6500392  36.5360093
  18.5468605  11.9563219  38.6525674  17.5998941  11.8368570  38.5804000
  18.8951378  11.0685717  38.7351935  15.5515039  11.7515935  34.8530026
  15.4040001  10.8232642  35.0337596  16.3768532  11.7736026  34.3687101
  19.1549160  12.5744494  35.9394899  20.0795708  12.3687355  35.8019350
  18.9864464  12.3260895  36.8484240  18.9444477  13.0930161  31.2956990
  19.1181354  12.5276584  30.5430842  19.4373368  13.8931056  31.1136480
  24.7983868   5.8566584  32.9147290  25.2415014   5.1073909  32.5166413
  23.9210378   5.8476720  32.5321022  19.9319649  12.4096926  28.3953888
  20.6270554  13.0303618  28.6141203  20.2742799  11.5592277  28.6706266
  21.8311072   9.8596631  29.9241219  22.3562396  10.1983904  29.1990539
  21.7433425   8.9243646  29.7404354  13.4931121  13.7730705  42.0531096
  13.8018247  13.5279851  42.9253795  14.2906603  13.9777343  41.5649966
  13.5151733  15.9268614  34.2836472  13.0756723  15.4344993  34.9769329
  14.2659850  15.3841582  34.0428547   5.9944072  12.1180155  34.2861100
   6.8202092  11.8183927  33.9059744   5.6438124  11.3487778  34.7350889
  10.9625605  11.4706623  36.3558774  10.3405615  10.8077328  36.0561002
  11.6330472  11.4967755  35.6732422   4.1952677  10.0366482  35.2450034
   3.3584585   9.6088656  35.0634035   4.1676323  10.2298925  36.1820825
  21.5204978  10.4929535  45.2292417  20.7300522  10.4753674  44.6896916
  21.2838333  11.0317828  45.9841454  21.6402853   7.3422001  42.5425146
  21.6900858   7.1772009  43.4840668  21.5316777   6.4749260  42.1523026
  10.5239112  10.0210547  29.8317234  10.6727232  10.7046011  29.1783907
  11.3305556  10.0015637  30.3466690  18.9306616   3.3252929  43.8584452
  19.8316479   3.1859394  43.5668450  19.0054590   3.4907384  44.7982630
  23.1421050   9.7618943  42.7867167  22.8505859  10.1248923  43.6230628
  22.5293182   9.0485951  42.6080499  24.3416733   7.3271822  35.3069737
  25.1763624   7.7661626  35.4707298  24.4775861   6.8510476  34.4877983
  21.3908239   4.8851557  41.2547225  21.8662360   5.0779204  40.4466076
  20.4673804   4.9410743  41.0090609  14.0234518  12.5158677  27.3028982
  13.4508485  13.1348864  26.8499454  14.5967311  13.0658039  27.8368904
  20.0909908   1.7617317  39.4875531  21.0427330   1.8615415  39.5087755
  19.9213358   0.9695586  39.9973615  18.1124287  -1.1527099  39.6734932
  17.5174219  -0.8722087  38.9781420  17.8273984  -0.6633199  40.4451673
  17.2431777  12.7995827  28.4337564  18.1762451  12.7341389  28.6370440
  17.1554990  13.6352094  27.9752097  19.8719794  12.1161698  25.3941512
  19.7933426  11.7821561  26.2877270  20.6929461  12.6083466  25.3932984
  22.5697985   4.9823437  38.6017830  22.5374305   4.0439438  38.7877514
  23.1798609   5.0607474  37.8683655  14.4081316   3.8519490  24.6445034
  15.3540421   3.7225698  24.7133452  14.0295561   3.1134152  25.1214463
  22.7192474   1.7734480  38.6476114  22.2031522   0.9892937  38.4606042
  23.6032422   1.4453197  38.8122633  28.3874535   6.0439444  37.7423867
  29.1177924   5.7824732  38.3031570  27.7781481   5.3068166  37.7825935
  26.4689832   4.1847306  38.3398318  25.7422996   4.0503271  37.7314810
  26.0537119   4.4924135  39.1455036  14.2920009   7.9037236  46.1045691
  15.2123018   8.0815835  46.2985738  14.2569592   6.9593281  45.9525391
  12.0241217   4.8168615  46.9536283  11.5408298   5.6168975  47.1600172
  12.1102156   4.8276560  46.0003727   7.9514554   8.7073150  38.9904717
   8.9057808   8.6757092  38.9234648   7.7527078   8.2463774  39.8054943
   8.5413936   7.2774266  41.5575515   9.3606825   7.7718345  41.5810352
   8.8150744   6.3606234  41.5293082  18.2980532  -0.3314982  30.9203470
  17.4106387  -0.0465331  30.7023665  18.7134522  -0.4921218  30.0730747
  21.6495069  -0.3068461  34.6357809  22.4255459   0.1827992  34.9082426
  20.9243203   0.1189594  35.0929679  24.0867627   0.4059159  35.6931750
  24.6812118   0.1654895  34.9825058  24.1594211  -0.3133711  36.3205286
   6.3064783  14.2492770  36.0074915   6.1719251  13.4893170  35.4412913
   5.8896845  14.9733669  35.5403704  17.4423746   9.4329693  25.0151490
  18.1459596   9.6379696  25.6309146  16.7186395  10.0006455  25.2800574
  18.2721556   5.1839554  31.1353760  18.2156758   5.6408106  30.2961393
  18.8249899   4.4230239  30.9576603  22.0826362   0.9729286  31.9603880
  21.8263296   0.5725922  32.7912087  21.4579230   1.6873080  31.8354019
  26.3938700   3.7125359  34.4675171  25.8338258   3.7818549  35.2406733
  25.7882203   3.5366344  33.7474667   9.4633909  15.1462087  36.2193357
   9.3466293  16.0907519  36.1172048   8.6426355  14.8435648  36.6079157
  19.3510443   9.8712222  27.0649950  20.1856047   9.4393421  26.8827425
  19.1894786   9.6994236  27.9926845  19.0056335   6.3744336  28.4306289
  18.9505139   6.2088607  27.4894733  18.3802391   7.0820369  28.5868479
  16.3202243   8.6793247  47.7559852  17.1893402   8.8533900  47.3946487
  15.8408994   9.4987664  47.6335582  10.4888423  15.7990348  39.4349286
  11.3915670  15.8313959  39.7515781  10.2625793  14.8690799  39.4495622
  12.2442025  14.5521335  36.0959364  11.2937656  14.5523197  35.9823737
  12.5474511  13.8054070  35.5795399  20.6471240  22.1944778  33.0863542
  20.0836106  22.1034715  32.3179830  20.5323635  21.3744682  33.5666035
  22.4892704  19.1097549  26.4283592  22.7418225  18.5879070  25.6667055
  21.5517263  18.9463694  26.5310275  22.2088993  21.0125655  28.6307967
  22.0925251  20.3370558  29.2989051  22.3191253  20.5258029  27.8140120
  30.4569834  11.7630135  39.5985922  30.1253159  12.6325546  39.3747137
  29.8615448  11.4466419  40.2779952  20.4013835  20.4156477  35.0318539
  19.4764332  20.2832691  35.2396231  20.6498249  21.1950697  35.5288482
  17.7622646  20.0589751  35.8662328  17.8915028  20.3124230  36.7801740
  17.0820098  20.6517459  35.5466983  24.4239363  17.9014866  44.6214169
  23.6472698  18.4608786  44.6117034  25.0629927  18.3871649  45.1429039
  32.2160144  14.6841659  38.4557146  31.5734524  14.9774192  37.8096941
  31.7115073  14.5694579  39.2610343  22.6785736  20.7100320  44.1832136
  23.4200420  21.2485364  43.9066960  21.9722721  21.3366608  44.3403688
  27.6571591  15.4506435  41.8119028  27.4132523  16.2048496  41.2753304
  27.9331521  15.8291783  42.6466275  27.2136283  14.6062868  37.3932866
  26.3520762  14.9044122  37.6849604  27.2398717  14.8233267  36.4613899
  20.9221933  22.6976540  36.7386435  21.4923290  23.1263809  36.1003920
  21.5130045  22.4159125  37.4370621  21.4147100  17.8639968  44.9847446
  20.7845760  18.5456249  45.2182843  21.3083187  17.7523049  44.0400585
  16.7092072  17.5311764  35.9113370  15.9191126  17.7869292  35.4353481
  17.2003319  18.3460102  36.0165411  18.6606817  17.8956343  32.8696847
  17.8637981  18.0075037  33.3880343  18.4332410  18.2342995  32.0037738
  14.9929775  17.7842254  38.3428361  15.2437813  18.6689264  38.6085937
  15.5289323  17.6046856  37.5703453  20.6927842  12.1660734  47.3472697
  20.2994788  11.6126932  48.0220342  21.5093983  12.4771312  47.7379215
  23.6095803  13.5818613  44.9392954  24.3505517  14.1825766  44.8597416
  23.8413726  12.8396251  44.3810996  18.7537141  18.7674980  43.2171184
  18.6390656  17.8660237  43.5178283  17.8981659  19.0138677  42.8656000
  27.5552966   9.6099716  39.2157236  27.2117236  10.5001357  39.1396346
  27.9231929   9.4201373  38.3526821  25.1050360  14.4458028  32.7814909
  24.2491956  14.0564878  32.6020548  25.5177312  14.5249988  31.9214695
  26.6349507  11.9804371  37.1806469  26.1314302  11.9434506  36.3674274
  26.9280113  12.8897114  37.2403126  22.8792392  12.0643101  36.1872651
  23.7445389  11.8685909  35.8278540  22.9469901  11.8353452  37.1142007
  20.4854712  14.2945309  33.5589017  21.0598463  14.0720490  32.8262210
  21.0725694  14.3634003  34.3117619  20.8124299  16.3249770  27.5784903
  19.9761611  16.6624456  27.8994177  20.6729068  16.1898749  26.6412040
  22.7877379  11.1686557  32.2864087  22.1341792  10.8535575  31.6620702
  22.7457853  10.5462298  33.0123910  29.3540632   8.8693275  34.3174973
  29.6599509   8.0090638  34.0300888  30.0793237   9.4610895  34.1173967
  23.6261712  19.1647068  34.8251164  23.6810321  18.2120904  34.7493641
  22.8152914  19.3206507  35.3092463  21.5654071  17.7824128  32.5841543
  20.7521937  18.0818298  32.9906735  22.0613066  17.3879817  33.3016025
  21.0568146  15.3542483  38.2002778  21.6967526  15.2131242  37.5025741
  20.2245677  15.0676997  37.8241380  18.1411214  18.7987995  30.3897523
  17.2108802  18.7372451  30.6067485  18.2368686  18.2763948  29.5934165
  18.0596763  15.3242808  32.9775765  18.3203580  16.2388141  32.8684925
  18.8813935  14.8567251  33.1272378  19.5321688  16.7380565  40.1474589
  20.2044741  16.5297928  39.4987238  18.7051475  16.5402651  39.7079822
  25.4347260  13.3642506  42.1640250  24.7875175  14.0632456  42.0704727
  26.2048275  13.7978650  42.5316499  19.9349185  20.0123168  40.9077027
  19.7968983  19.2803407  41.5088566  20.8454109  19.9232068  40.6261214
  21.2760420  16.7108346  42.2156346  20.7397777  16.2599084  42.8677942
  20.6877128  16.8454254  41.4726810  20.6862679  16.1696997  24.7782809
  19.8092145  16.0485798  24.4145056  21.1620432  15.3783075  24.5261698
  17.0099541  15.8464353  39.3009340  16.9257730  15.2390023  38.5659750
  16.1882248  16.3373372  39.3018837  27.1823255  14.3317917  34.6679535
  27.6791955  13.5787879  34.3480606  26.4110237  14.3682233  34.1022745
  23.7658224  16.4735300  34.3951220  23.3956011  15.9206340  35.0832126
  24.2617316  15.8693433  33.8426220  29.6242250  11.2987510  36.8158894
  28.7105330  11.5291737  36.9841101  30.0535351  11.3825954  37.6672927
  25.4436281  20.2297213  45.8024825  24.7676918  20.1291343  46.4727201
  26.2663915  20.0736427  46.2660823  11.7832795  19.0374750  37.1441784
  11.8216895  18.5038341  37.9378902  11.2773088  18.5109956  36.5252761
  19.1623557  13.8839291  40.6404326  19.2264884  14.7454121  40.2281724
  19.0990678  13.2713292  39.9076685  18.6375830  15.9562423  44.2877360
  19.2647869  15.5739500  44.9014885  17.7803749  15.7376625  44.6533053
  15.4141373  17.7638852  30.2195715  15.7094814  16.8549531  30.1662769
  14.5129408  17.7426592  29.8976717  18.9435620  15.8394849  36.2023264
  18.2222205  16.4530817  36.0630737  19.7328875  16.3752614  36.1239910
  21.7461933  13.1749275  42.4763915  22.2696335  13.4211572  43.2390225
  21.5274266  14.0069310  42.0567053  17.1429214  15.4452950  30.3435040
  16.8141920  14.5650329  30.1610146  17.4968585  15.3900619  31.2311429
  20.2571037  15.7325920  30.7110518  20.5967110  16.2611841  29.9889126
  20.7043158  16.0706326  31.4869084  22.9514478  14.1162970  40.1613586
  22.6111299  13.3170783  40.5634266  22.2453485  14.4164681  39.5890419
  23.6030950  11.2012283  38.6140909  24.4257019  10.7272761  38.4919799
  23.8469014  11.9802767  39.1139595  22.2439185  14.2300541  28.9103811
  22.9647547  14.6081794  28.4067528  21.6204489  14.9489418  29.0138789
  21.1269529  17.8931403  36.4232888  20.9814110  18.2071707  37.3157169
  20.6494732  18.5116304  35.8703786  22.9865912  14.8833951  36.4713777
  22.9727480  13.9875045  36.1346075  23.7038340  14.8904615  37.1052063
  24.8392042  15.3171292  38.5166905  24.5809820  16.2388362  38.5151235
  24.3077083  14.9201726  39.2067369  15.6015191  20.4336748  39.3620549
  15.0568659  21.2096556  39.4940823  16.4794541  20.7807552  39.2039670
  22.3902808  13.7648332  31.7401347  22.5118719  12.8364978  31.9392235
  22.1004850  13.7787018  30.8279663  25.2593998  11.4503242  34.8768067
  25.2815695  11.5142575  33.9220047  25.6762057  10.6107751  35.0708573
  16.3881213  19.5606644  42.2550706  15.6462949  19.7089280  42.8415336
  16.0673957  19.8214910  41.3917455  21.8743887  15.2780329  45.9491280
  21.9232043  16.1542452  45.5669050  22.4166401  14.7357722  45.3762923
  29.7700370  18.6544847  43.8584452  30.6710233  18.5151312  43.5668450
  29.8448345  18.8199302  44.7982630  24.1043176  16.0311702  42.7037639
  23.2346485  16.3245268  42.4320227  24.3402656  16.6152147  43.4244902
  19.1185500  21.3767642  30.8378303  18.8731542  20.4729972  31.0358513
  19.2881414  21.3784793  29.8957781  26.8082209  12.2491318  40.2203059
  27.3264153  12.9852345  39.8949548  26.4537342  12.5555312  41.0549818
  18.3881147  17.1096000  28.3364465  17.6950392  17.1840355  27.6804501
  18.1432899  16.3456343  28.8585982  27.0594804   8.6691601  35.7403956
  27.3396557   8.0014790  36.3664382  27.8445411   8.8620697  35.2278619
  30.9303662  17.0909235  39.4875531  31.8821085  17.1907333  39.5087755
  30.7607112  16.2987504  39.9973615  28.9518041  14.1764818  39.6734932
  28.3567974  14.4569831  38.9781420  28.6667738  14.6658719  40.4451673
  25.2475071  19.1811408  24.6445034  26.1934175  19.0517616  24.7133452
  24.8689316  18.4426070  25.1214463  31.2196955  10.8467414  34.6071926
  31.0221776  10.5382502  35.4915258  31.8296661  11.5729053  34.7369856
  25.1313763  23.2329154  46.1045691  26.0516773  23.4107753  46.2985738
  25.0963346  22.2885199  45.9525391  23.4317988  17.1061384  24.5799920
  22.5249443  16.8094497  24.6562633  23.7093969  16.8091202  23.7134206
  14.3495928  18.4267747  35.0298966  14.0298713  17.5733056  34.7373340
  13.8029356  18.6416326  35.7856933  18.1275836  21.1430188  38.7468473
  18.3461846  22.0747296  38.7656506  18.5401610  20.7838163  39.5323276
  25.0480054  11.6498274  30.7344161  24.2380782  11.3045359  31.1099407
  25.7364470  11.3405817  31.3231772  26.9770602  10.7276321  32.3568458
  27.5301640  11.1471774  33.0158481  27.2140688   9.8012069  32.3991414
  23.0003701  16.7163394  48.1371221  22.9000428  17.6657751  48.0683313
  22.7825243  16.3881633  47.2647292  22.2016772  13.9648319  24.7211899
  23.0635936  14.2903218  24.9807716  22.3867117  13.1779815  24.2084965
  14.2184188  22.0470659  36.9992088  13.5247660  21.6324612  36.4862042
  14.9657179  22.0891195  36.4025506  28.8052975  12.2381903  34.0668442
  29.3052754  12.3498438  33.2582761  29.4488583  11.9342956  34.7069251
  22.8634971  20.1460533  46.9536283  22.3802053  20.9460893  47.1600172
  22.9495910  20.1568478  46.0003727  19.3807691  22.6066184  41.5575515
  20.2000580  23.1010262  41.5810352  19.6544498  21.6898152  41.5293082
  32.4888823  15.0223457  34.6357809  33.2649213  15.5119910  34.9082426
  31.7636957  15.4481511  35.0929679  34.9261382  15.7351076  35.6931750
  35.5205872  15.4946812  34.9825058  34.9987965  15.0158207  36.3205286
  14.6342605  16.9404318  42.2567712  15.2801469  16.4303272  42.7454937
  14.4259756  17.6772999  42.8311137  27.1595997  24.0085165  47.7559852
  28.0287157  24.1825817  47.3946487  26.6802749  24.8279582  47.6335582
  23.1546215  11.2044362  28.0091608  23.1424885  12.1486202  28.1659879
  24.0469637  11.0214508  27.7151069  26.9698335   7.7987139  32.2637545
  26.2030731   7.2445626  32.4094227  27.3809040   7.8709008  33.1251696
  18.9740096  14.0871935  46.3542726  19.8371558  13.7308740  46.5646050
  18.4005507  13.7485830  47.0418130  30.4102718  48.8064313  36.1101004
  30.6499316  49.4382837  36.7880023  29.5671914  48.4552353  36.3966364
  25.8740186  40.6950317  35.2450034  25.0372094  40.2672491  35.0634035
  25.8463832  40.8882760  36.1820825  33.8397456  32.0455312  48.1371221
  33.7394182  32.9949669  48.0683313  33.6218998  31.7173551  47.2647292
  27.9852292  44.9076605  36.0074915  27.8506760  44.1477006  35.4412913
  27.5684354  45.6317505  35.5403704  32.1675932  46.4574184  39.4349286
  33.0703179  46.4897794  39.7515781  31.9413302  45.5274635  39.4495622
  49.6582227  51.0465709  37.1605127  50.2960637  50.9272456  36.4568467
  49.5403070  51.9946553  37.2193079  47.9058308  56.5199581  28.3978007
  47.2546288  57.1053661  28.0112021  48.7002671  57.0505776  28.4573045
  44.1680213  49.7681384  26.4283592  44.4205734  49.2462906  25.6667055
  43.2304772  49.6047530  26.5310275  49.3833573  54.2090013  28.9346992
  48.7479406  54.2824639  29.6467896  49.0530980  54.7983612  28.2566071
  54.6131923  48.7092396  35.1391313  55.3457095  48.1391613  35.3729143
  53.8571279  48.3213996  35.5797819  43.8876502  51.6709490  28.6307967
  43.7712760  50.9954394  29.2989051  43.9978762  51.1841864  27.8140120
  46.2308043  51.1319637  32.3354656  45.8666250  50.6050258  33.0467577
  47.0875159  50.7418106  32.1621141  48.6288863  54.6226516  38.9981835
  48.3289586  55.5251555  38.8897642  48.2839922  54.3558699  39.8502988
  45.8502751  48.6167194  28.3162671  45.7302376  49.0624245  29.1548151
  45.1555339  48.9652512  27.7576209  53.8947653  45.3425494  38.4557146
  53.2522033  45.6358028  37.8096941  53.3902582  45.2278415  39.2610343
  51.5487817  49.0888668  29.1443005  52.4605673  49.3216054  28.9690703
  51.0397464  49.6725712  28.5818084  49.8328584  53.5113295  42.7804298
  50.2411940  53.0695706  42.0358930  49.1105846  52.9365923  43.0338491
  50.1557399  54.0714486  36.5356587  49.5266261  54.2360200  35.8332655
  49.7683061  54.4856096  37.3067551  54.0346631  55.0068924  33.8900950
  53.3497669  55.3867825  33.3397984  54.1190480  55.6164251  34.6232898
  51.2897563  52.6528883  40.4896294  51.5014458  53.2960643  39.8130675
  51.2427311  51.8191200  40.0218224  45.7085361  53.8088894  33.8006672
  46.1723706  54.0876597  33.0111294  45.4442159  52.9072339  33.6179762
  52.4043390  55.5300838  38.6618651  53.2260834  55.1281026  38.3801333
  52.4005793  55.4269073  39.6134767  60.4949384  51.8739587  35.0103623
  59.7413092  51.3046985  34.8547627  60.6296925  51.8402251  35.9574257
  47.5116488  57.3676556  44.8158684  47.0680342  56.5812934  44.4979589
  48.1733702  57.5555706  44.1502575  42.2703609  58.8972357  39.3419363
  42.8211034  58.7689421  38.5696357  41.4315085  59.1967246  38.9914256
  49.6097726  57.6479356  42.8440085  49.5916201  58.4688237  42.3520355
  50.5317646  57.5233431  43.0690227  46.0670780  55.1623485  43.6863594
  46.5999117  54.4011773  43.4562902  45.5384861  54.8697137  44.4287748
  49.1990758  50.2592162  27.7229671  48.6837381  51.0296767  27.9618058
  48.9268066  49.5857298  28.3462732  54.1725032  53.0124517  29.6582844
  53.3954475  52.6735676  29.2138006  54.8516513  53.0177140  28.9837809
  48.9877061  48.1319254  29.5489452  48.6827197  48.4465403  30.3999595
  49.9407503  48.2100674  29.5916785  47.4323493  54.2909478  31.1982406
  46.9044854  53.5562237  30.8855643  46.9310996  55.0684154  30.9522374
  52.4116339  52.4858498  36.3149452  51.7540013  53.1757759  36.4029581
  53.2156738  52.8754930  36.6583439  51.2221798  50.8402871  34.3653394
  51.7353679  51.4732863  34.8675104  51.8723022  50.2404066  33.9996754
  48.4844172  60.8187195  27.1214065  47.8105871  61.1218892  27.7299023
  48.8709994  61.6216275  26.7719522  48.4837676  49.7143742  31.7414415
  49.2309495  50.2265139  31.4321537  48.7529266  49.3927795  32.6018808
  46.7564327  52.2102283  28.7241369  45.8475546  51.9261316  28.8213839
  46.7859410  52.6301361  27.8644676  51.9883594  55.8208872  32.4932537
  51.5345921  54.9799782  32.5497727  51.3577561  56.4570271  32.8307317
  50.4316533  57.6585369  33.4282355  50.7239508  58.2190426  32.7094720
  50.9415154  57.9513930  34.1835514  54.5713529  52.0268223  32.1205766
  54.4331428  52.2169819  31.1926955  54.2149748  52.7887606  32.5773817
  54.5982909  54.0944750  37.1317038  55.0319415  54.0020040  37.9800092
  55.3114489  54.0702251  36.4937054  48.3310804  57.6946845  38.6650138
  48.3847826  58.2637781  39.4327854  47.4625585  57.8648730  38.3004175
  55.4598458  54.1368451  39.6649923  55.6534348  55.0414262  39.9109198
  55.3599076  53.6775870  40.4988508  50.5213567  54.2875194  45.2390804
  50.3699073  54.0585746  44.3220887  50.5118246  55.2445795  45.2522149
  46.0887235  55.8857771  37.9935608  45.9498321  55.5176555  38.8661546
  45.3001831  56.4005410  37.8219566  47.6392450  55.2639374  35.3824445
  47.3042283  55.2240144  36.2782095  47.1396396  54.5984090  34.9094856
  50.5751642  52.6095408  25.6561505  49.9580813  51.8842236  25.5594558
  50.1068130  53.3704768  25.3128579  52.2305774  57.3194316  43.3167286
  52.1718320  56.6353537  42.6497869  52.6325292  58.0613306  42.8647912
  41.2496472  64.1356230  36.1101004  41.4893071  64.7674754  36.7880023
  40.4065669  63.7844270  36.3966364  52.2323181  55.2833900  41.5481265
  51.3449960  54.9459822  41.6707664  52.8021732  54.5516932  41.7850031
  33.8852328  51.6157992  34.8724317  34.5723368  51.3019722  34.2845332
  33.7300457  52.5199357  34.5991568  45.7624334  59.9435353  38.5142508
  45.6894506  60.7490324  39.0261813  45.3201727  60.1427319  37.6890530
  56.7140521  50.6942118  36.3097827  56.7030398  51.5766833  35.9391760
  55.8457901  50.3413669  36.1152364  48.2223018  59.8422187  40.6700667
  48.9350990  60.4769652  40.5976569  47.7313046  59.9386053  39.8540669
  49.9440545  53.7473439  32.2417959  49.0096823  53.8674902  32.0722663
  50.1217213  52.8445906  31.9777969  53.3313096  49.5890759  32.7767993
  53.7973548  50.4218750  32.7028296  53.7820597  49.1235740  33.4813251
  43.2734931  57.5916630  41.4906238  43.9744391  58.2253113  41.6435632
  42.8030046  57.9331362  40.7301877  51.3989327  55.9334580  29.7754145
  51.6749171  55.8191175  30.6848019  50.5293826  55.5352065  29.7366318
  51.0736217  50.1461238  39.3158788  50.4207668  50.3937145  38.6611241
  51.4516597  49.3325376  38.9821266  48.0343391  60.1820931  33.4186959
  48.2165786  59.3642587  33.8814711  48.8576377  60.3988623  32.9811849
  48.3685557  59.1089116  30.6802007  48.8973323  58.5981571  30.0672169
  48.6313776  58.7931646  31.5447540  47.1223790  50.8881049  45.8024825
  46.4464427  50.7875178  46.4727201  47.9451424  50.7320262  46.2660823
  38.8702649  57.1252985  38.4237341  39.4556086  56.3796673  38.5565245
  38.6727488  57.4356942  39.3074004  33.4620304  49.6958585  37.1441784
  33.5004404  49.1622176  37.9378902  32.9560597  49.1693791  36.5252761
  45.8646573  62.1947976  40.0382441  46.4164881  62.3579598  40.8031527
  46.2052767  62.7852414  39.3662466  50.7157447  57.0209234  45.8931096
  51.2597351  57.6339192  45.3986051  50.1344292  57.5788812  46.4098109
  49.0014960  60.1429952  37.0246123  48.8766100  59.3419692  36.5157069
  49.6594052  60.6376145  36.5360093  51.0649869  57.9438972  38.6525674
  50.1180204  57.8244323  38.5804000  51.4132642  57.0561470  38.7351935
  48.0696302  57.7391688  34.8530026  47.9221265  56.8108395  35.0337596
  48.8949796  57.7611779  34.3687101  51.6730424  58.5620247  35.9394899
  52.5976971  58.3563108  35.8019350  51.5045727  58.3136648  36.8484240
  48.0657816  45.5929526  29.8462143  48.2821431  46.4754163  29.5450971
  47.5851884  45.2015739  29.1167785  51.4625740  59.0805914  31.2956990
  51.6362618  58.5152337  30.5430842  51.9554631  59.8806809  31.1136480
  37.2802700  51.0920583  39.3620549  36.7356168  51.8680391  39.4940823
  38.1582050  51.4391388  39.2039670  57.3165131  51.8442337  32.9147290
  57.7596277  51.0949662  32.5166413  56.4391642  51.8352473  32.5321022
  52.4500913  58.3972679  28.3953888  53.1451817  59.0179371  28.6141203
  52.7924063  57.5468030  28.6706266  38.0668722  50.2190480  42.2550706
  37.3250458  50.3673115  42.8415336  37.7461466  50.4798745  41.3917455
  54.3492336  55.8472384  29.9241219  54.8743660  56.1859657  29.1990539
  54.2614688  54.9119399  29.7404354  46.0112384  59.7606458  42.0531096
  46.3199511  59.5155604  42.9253795  46.8087867  59.9653096  41.5649966
  43.4806869  57.4582376  36.3558774  42.8586878  56.7953081  36.0561002
  44.1511736  57.4843508  35.6732422  36.7133941  56.0242235  35.2450034
  35.8765849  55.5964409  35.0634035  36.6857586  56.2174678  36.1820825
  54.0386242  56.4805288  45.2292417  53.2481786  56.4629427  44.6896916
  53.8019596  57.0193581  45.9841454  54.1584117  53.3297754  42.5425146
  54.2082122  53.1647762  43.4840668  54.0498040  52.4625013  42.1523026
  51.4487879  49.3128682  43.8584452  52.3497742  49.1735147  43.5668450
  51.5235854  49.4783137  44.7982630  55.6602314  55.7494696  42.7867167
  55.3687122  56.1124676  43.6230628  55.0474445  55.0361704  42.6080499
  56.8597996  53.3147575  35.3069737  57.6944887  53.7537379  35.4707298
  56.9957125  52.8386229  34.4877983  53.9089502  50.8727310  41.2547225
  54.3843624  51.0654957  40.4466076  52.9855067  50.9286496  41.0090609
  52.6091171  47.7493070  39.4875531  53.5608594  47.8491168  39.5087755
  52.4394621  46.9571339  39.9973615  49.7613041  58.7871580  28.4337564
  50.6943714  58.7217142  28.6370440  49.6736254  59.6227847  27.9752097
  52.3901058  58.1037451  25.3941512  52.3114689  57.7697314  26.2877270
  53.2110724  58.5959219  25.3932984  55.0879249  50.9699190  38.6017830
  55.0555569  50.0315191  38.7877514  55.6979872  51.0483227  37.8683655
  46.9262580  49.8395243  24.6445034  47.8721684  49.7101451  24.7133452
  46.5476825  49.1009905  25.1214463  55.2373737  47.7610233  38.6476114
  54.7212786  46.9768690  38.4606042  56.1213686  47.4328950  38.8122633
  60.9055799  52.0315197  37.7423867  61.6359187  51.7700485  38.3031570
  60.2962744  51.2943919  37.7825935  58.9871096  50.1723059  38.3398318
  58.2604259  50.0379024  37.7314810  58.5718383  50.4799888  39.1455036
  46.8101272  53.8912989  46.1045691  47.7304282  54.0691588  46.2985738
  46.7750855  52.9469034  45.9525391  35.8971697  52.7054494  36.9992088
  35.2035169  52.2908447  36.4862042  36.6444688  52.7475031  36.4025506
  52.0336918  43.4960681  31.8647122  51.4535587  44.1545485  31.4825174
  51.7672851  42.6738026  31.4534539  44.5422480  50.8044368  46.9536283
  44.0589562  51.6044728  47.1600172  44.6283419  50.8152313  46.0003727
  40.4695818  54.6948903  38.9904717  41.4239071  54.6632845  38.9234648
  40.2708341  54.2339527  39.8054943  50.8161796  45.6560771  30.9203470
  49.9287651  45.9410422  30.7023665  51.2315785  45.4954535  30.0730747
  54.1676332  45.6807292  34.6357809  54.9436722  46.1703745  34.9082426
  53.4424466  46.1065347  35.0929679  56.6048891  46.3934912  35.6931750
  57.1993381  46.1530648  34.9825058  56.6775474  45.6742042  36.3205286
  38.8246046  60.2368523  36.0074915  38.6900514  59.4768923  35.4412913
  38.4078109  60.9609422  35.5403704  49.9605009  55.4205446  25.0151490
  50.6640859  55.6255449  25.6309146  49.2367658  55.9882208  25.2800574
  50.7902820  51.1715307  31.1353760  50.7338021  51.6283859  30.2961393
  51.3431162  50.4105992  30.9576603  54.6007626  46.9605039  31.9603880
  54.3444560  46.5601675  32.7912087  53.9760494  47.6748833  31.8354019
  58.9119963  49.7001112  34.4675171  58.3519521  49.7694302  35.2406733
  58.3063467  49.5242097  33.7474667  51.8691707  55.8587975  27.0649950
  52.7037311  55.4269174  26.8827425  51.7076050  55.6869989  27.9926845
  51.5237599  52.3620089  28.4306289  51.4686403  52.1964360  27.4894733
  50.8983654  53.0696122  28.5868479  48.8383506  54.6669000  47.7559852
  49.7074666  54.8409653  47.3946487  48.3590258  55.4863417  47.6335582
  44.8333724  41.8628198  28.0091608  44.8212394  42.8070038  28.1659879
  45.7257146  41.6798343  27.7151069  43.0069686  61.7866101  39.4349286
  43.9096933  61.8189712  39.7515781  42.7807056  60.8566552  39.4495622
  60.4975982  66.3757626  37.1605127  61.1354392  66.2564374  36.4568467
  60.3796825  67.3238470  37.2193079  57.3065688  66.3285055  37.0966652
  56.9684200  66.2126119  36.2087186  58.1755456  65.9276220  37.0767658
  53.1652504  68.1820531  33.0863542  52.6017369  68.0910468  32.3179830
  53.0504899  67.3620435  33.5666035  57.7885471  67.4819906  43.0552857
  57.7774112  67.0872705  42.1833361  57.9506111  66.7485979  43.6486628
  50.7116936  69.6771723  35.9247763  51.5038228  69.3362547  35.5094062
  50.9513586  69.7866698  36.8449916  52.6707690  68.9380636  28.7965142
  53.4438566  68.3909623  28.6578018  53.0233089  69.8024885  29.0079603
  54.5092732  70.2657018  42.0032041  54.2182598  71.1702649  41.8878707
  55.1449717  70.3073546  42.7176111  55.4348939  67.6433867  38.5933401
  56.0312511  67.4189889  37.8790364  55.4923911  66.9018612  39.1958849
  55.0073968  65.0973302  26.4283592  55.2599488  64.5754823  25.6667055
  54.0698527  64.9339447  26.5310275  60.0517250  64.1009080  34.2358335
  60.8380340  63.6828503  33.8848752  60.3155955  65.0055172  34.4039983
  65.4525677  64.0384313  35.1391313  66.1850849  63.4683530  35.3729143
  64.6965033  63.6505914  35.5797819  54.7270256  67.0001408  28.6307967
  54.6106514  66.3246311  29.2989051  54.8372516  66.5133782  27.8140120
  57.0701797  66.4611555  32.3354656  56.7060004  65.9342176  33.0467577
  57.9268913  66.0710024  32.1621141  62.9751098  57.7505888  39.5985922
  62.6434423  58.6201299  39.3747137  62.3796711  57.4342172  40.2779952
  56.7107284  61.4901455  27.3316004  56.8781687  62.3581691  27.6986475
  56.5204453  61.6528736  26.4077294  52.9195099  66.4032230  35.0318539
  51.9945595  66.2708445  35.2396231  53.1679512  67.1826450  35.5288482
  62.8679761  62.4700974  36.6779272  61.9596638  62.4016382  36.3838033
  62.8167357  62.9472919  37.5061098  56.6896505  63.9459112  28.3162671
  56.5696130  64.3916163  29.1548151  55.9949093  64.2944430  27.7576209
  50.2803910  66.0465504  35.8662328  50.4096291  66.2999983  36.7801740
  49.6001361  66.6393212  35.5466983  56.9420627  63.8890619  44.6214169
  56.1653961  64.4484539  44.6117034  57.5811190  64.3747402  45.1429039
  64.7341408  60.6717412  38.4557146  64.0915788  60.9649945  37.8096941
  64.2296336  60.5570332  39.2610343  62.3881571  64.4180585  29.1443005
  63.2999427  64.6507972  28.9690703  61.8791218  65.0017630  28.5818084
  55.1966999  66.6976073  44.1832136  55.9381684  67.2361117  43.9066960
  54.4903985  67.3242361  44.3403688  57.0253409  63.7777820  40.1537855
  57.8714604  64.2017233  40.2972504  56.9652047  63.1211444  40.8476418
  60.1752854  61.4382188  41.8119028  59.9313786  62.1924249  41.2753304
  60.4512785  61.8167536  42.6466275  59.7317546  60.5938621  37.3932866
  58.8702025  60.8919875  37.6849604  59.7579981  60.8109020  36.4613899
  56.5479115  69.1380812  33.8006672  57.0117461  69.4168515  33.0111294
  56.2835914  68.2364256  33.6179762  53.4403196  68.6852293  36.7386435
  54.0104554  69.1139562  36.1003920  54.0311308  68.4034878  37.4370621
  55.4848001  65.2603964  30.6096237  56.1872045  65.7125008  31.0770163
  55.1528630  64.6187783  31.2376130  53.9328363  63.8515721  44.9847446
  53.3027024  64.5332002  45.2182843  53.8264451  63.7398802  44.0400585
  49.2273335  63.5187517  35.9113370  48.4372389  63.7745045  35.4353481
  49.7184583  64.3335855  36.0165411  51.1788081  63.8832096  32.8696847
  50.3819244  63.9950790  33.3880343  50.9513673  64.2218748  32.0037738
  57.0093748  70.4076799  40.8179362  57.0738181  70.8697207  41.6537534
  56.3004672  69.7774164  40.9461672  47.5111038  63.7718007  38.3428361
  47.7619077  64.6565017  38.6085937  48.0470587  63.5922609  37.5703453
  53.2109106  58.1536487  47.3472697  52.8176051  57.6002685  48.0220342
  54.0275246  58.4647065  47.7379215  50.1771163  69.5920345  31.2586267
  50.6895684  70.3863595  31.4091832  50.8293876  68.8946635  31.1919869
  51.9866048  72.7086101  33.3409020  52.1632677  73.6304066  33.1530004
  52.7822882  72.3944520  33.7703400  56.1277067  59.5694366  44.9392954
  56.8686780  60.1701519  44.8597416  56.3594990  58.8272004  44.3810996
  51.2718405  64.7550733  43.2171184  51.1571920  63.8535990  43.5178283
  50.4162922  65.0014430  42.8656000  56.9064535  70.4915403  43.6863594
  57.4392871  69.7303691  43.4562902  56.3778616  70.1989055  44.4287748
  60.0734230  55.5975469  39.2157236  59.7298499  56.4877110  39.1396346
  60.4413192  55.4077126  38.3526821  48.1420080  67.9208999  32.0345838
  48.9795302  68.3306008  31.8179545  48.3198348  66.9808441  32.0046032
  60.0384512  65.5884080  27.7229671  59.5231136  66.3588685  27.9618058
  59.7661821  64.9149216  28.3462732  57.6231623  60.4333781  32.7814909
  56.7673220  60.0440631  32.6020548  58.0358575  60.5125741  31.9214695
  59.1530770  57.9680124  37.1806469  58.6495566  57.9310259  36.3674274
  59.4461377  58.8772867  37.2403126  55.3973656  58.0518854  36.1872651
  56.2626653  57.8561662  35.8278540  55.4651165  57.8229205  37.1142007
  59.8270816  63.4611172  29.5489452  59.5220951  63.7757321  30.3999595
  60.7801258  63.5392592  29.5916785  58.2717247  69.6201395  31.1982406
  57.7438609  68.8854155  30.8855643  57.7704750  70.3976072  30.9522374
  53.0035975  60.2821062  33.5589017  53.5779727  60.0596243  32.8262210
  53.5906957  60.3509756  34.3117619  62.0615552  66.1694788  34.3653394
  62.5747434  66.8024780  34.8675104  62.7116776  65.5695984  33.9996754
  53.3305562  62.3125523  27.5784903  52.4942874  62.6500209  27.8994177
  53.1910332  62.1774502  26.6412040  55.3058643  57.1562310  32.2864087
  54.6523055  56.8411328  31.6620702  55.2639117  56.5338051  33.0123910
  56.4169848  67.4381606  24.2017379  55.5096909  67.2070859  24.4008528
  56.9140880  66.6419225  24.3891360  58.5396383  63.6444244  36.6111734
  57.6218944  63.8659191  36.4533423  58.9556527  63.7190554  35.7523442
  59.3231431  65.0435660  31.7414415  60.0703250  65.5557057  31.4321537
  59.5923020  64.7219712  32.6018808  57.5958081  67.5394200  28.7241369
  56.6869300  67.2553233  28.8213839  57.6253165  67.9593279  27.8644676
  61.7710268  62.0792776  33.7233204  61.0333025  61.5670162  34.0543447
  62.0237042  61.6393158  32.9116481  61.8721895  54.8569028  34.3174973
  62.1780772  53.9966391  34.0300888  62.5974500  55.4486648  34.1173967
  48.1646251  65.2599715  32.7056571  47.9670651  64.6669075  31.9807638
  47.6092915  64.9551925  33.4232510  56.1442975  65.1522821  34.8251164
  56.1991585  64.1996657  34.7493641  55.3334177  65.3082260  35.3092463
  57.2934169  69.0802944  26.0629448  56.8553599  68.3638803  25.6035085
  58.0344610  69.3079059  25.5014539  54.0835335  63.7699881  32.5841543
  53.2703200  64.0694051  32.9906735  54.5794329  63.3755570  33.3016025
  59.6809547  64.2341705  41.4156437  60.0358934  64.4613178  42.2750903
  60.3281678  64.5660082  40.7933692  53.5749410  61.3418236  38.2002778
  54.2148789  61.2006995  37.5025741  52.7426940  61.0552750  37.8241380
  54.3509714  70.6420667  34.3137771  55.1450312  70.1470987  34.1120346
  53.6401406  70.1138530  33.9505476  50.6592477  64.7863748  30.3897523
  49.7290065  64.7248204  30.6067485  50.7549949  64.2639701  29.5934165
  50.5778026  61.3118561  32.9775765  50.8384843  62.2263895  32.8684925
  51.3995198  60.8443004  33.1272378  52.0502951  62.7256318  40.1474589
  52.7226005  62.5173681  39.4987238  51.2232738  62.5278404  39.7079822
  57.9528523  59.3518259  42.1640250  57.3056439  60.0508209  42.0704727
  58.7229539  59.7854403  42.5316499  58.1292658  67.1899024  40.2237070
  59.0584718  67.3410184  40.0506037  57.7083688  67.2783045  39.3685717
  52.4530449  65.9998921  40.9077027  52.3150247  65.2679160  41.5088566
  53.3635372  65.9107822  40.6261214  55.0812749  65.7118881  40.3960706
  55.7912368  65.0712073  40.3547325  55.0382058  65.9631776  41.3186887
  53.7941683  62.6984099  42.2156346  53.2579040  62.2474837  42.8677942
  53.2058392  62.8330007  41.4726810  53.2043942  62.1572750  24.7782809
  52.3273409  62.0361551  24.4145056  53.6801695  61.3658828  24.5261698
  44.7246082  66.9449910  34.8724317  45.4117122  66.6311640  34.2845332
  44.5694211  67.8491274  34.5991568  49.5280805  61.8340106  39.3009340
  49.4438993  61.2265776  38.5659750  48.7063511  62.3249125  39.3018837
  59.7004518  60.3193670  34.6679535  60.1973218  59.5663632  34.3480606
  58.9291500  60.3557987  34.1022745  56.2839487  62.4611053  34.3951220
  55.9137275  61.9082093  35.0832126  56.7798580  61.8569186  33.8426220
  62.1423513  57.2863263  36.8158894  61.2286593  57.5167490  36.9841101
  62.5716615  57.3701707  37.6672927  61.9129972  65.4753155  39.3158788
  61.2601422  65.7229063  38.6611241  62.2910352  64.6617293  38.9821266
  57.9617545  66.2172966  45.8024825  57.2858182  66.1167096  46.4727201
  58.7845179  66.0612180  46.2660823  49.7096404  72.4544903  38.4237341
  50.2949841  71.7088591  38.5565245  49.5121242  72.7648860  39.3074004
  44.3014059  65.0250503  37.1441784  44.3398158  64.4914094  37.9378902
  43.7954351  64.4985709  36.5252761  51.6804821  59.8715044  40.6404326
  51.7446147  60.7329875  40.2281724  51.6171941  59.2589045  39.9076685
  51.1557093  61.9438176  44.2877360  51.7829132  61.5615253  44.9014885
  50.2985012  61.7252378  44.6533053  47.9322636  63.7514605  30.2195715
  48.2276077  62.8425284  30.1662769  47.0310672  63.7302345  29.8976717
  51.4616883  61.8270602  36.2023264  50.7403469  62.4406570  36.0630737
  52.2510139  62.3628367  36.1239910  54.2643197  59.1625028  42.4763915
  54.7877599  59.4087325  43.2390225  54.0455530  59.9945063  42.0567053
  49.6610478  61.4328703  30.3435040  49.3323184  60.5526082  30.1610146
  50.0149848  61.3776372  31.2311429  52.7752301  61.7201673  30.7110518
  53.1148373  62.2487594  29.9889126  53.2224421  62.0582079  31.4869084
  55.4695742  60.1038723  40.1613586  55.1292562  59.3046537  40.5634266
  54.7634748  60.4040434  39.5890419  56.1212214  57.1888036  38.6140909
  56.9438283  56.7148514  38.4919799  56.3650277  57.9678520  39.1139595
  54.7620448  60.2176294  28.9103811  55.4828811  60.5957547  28.4067528
  54.1385752  60.9365171  29.0138789  58.9051571  60.9221443  29.8462143
  59.1215185  61.8046081  29.5450971  58.4245638  60.5307657  29.1167785
  53.6450792  63.8807157  36.4232888  53.4995373  64.1947460  37.3157169
  53.1675996  64.4992057  35.8703786  55.5047175  60.8709705  36.4713777
  55.4908744  59.9750798  36.1346075  56.2219603  60.8780368  37.1052063
  57.3573306  61.3047045  38.5166905  57.0991084  62.2264115  38.5151235
  56.8258346  60.9077479  39.2067369  48.1196454  66.4212501  39.3620549
  47.5749923  67.1972309  39.4940823  48.9975804  66.7683305  39.2039670
  54.9084071  59.7524085  31.7401347  55.0299982  58.8240731  31.9392235
  54.6186113  59.7662771  30.8279663  57.7775262  57.4378995  34.8768067
  57.7996958  57.5018328  33.9220047  58.1943321  56.5983504  35.0708573
  48.9062476  65.5482397  42.2550706  48.1644212  65.6965033  42.8415336
  48.5855221  65.8090663  41.3917455  49.3519090  73.4347826  34.2861100
  50.1777110  73.1351598  33.9059744  49.0013142  72.6655448  34.7350889
  47.5527695  71.3534152  35.2450034  46.7159603  70.9256327  35.0634035
  47.5251340  71.5466596  36.1820825  54.3925151  61.2656082  45.9491280
  54.4413306  62.1418205  45.5669050  54.9347665  60.7233475  45.3762923
  53.8814130  71.3378217  29.8317234  54.0302250  72.0213682  29.1783907
  54.6880574  71.3183308  30.3466690  62.2881634  64.6420600  43.8584452
  63.1891497  64.5027065  43.5668450  62.3629608  64.8075055  44.7982630
  56.6224439  62.0187455  42.7037639  55.7527749  62.3121021  42.4320227
  56.8583919  62.6027900  43.4244902  51.6366763  67.3643395  30.8378303
  51.3912805  66.4605725  31.0358513  51.8062678  67.3660546  29.8957781
  59.3263473  58.2367071  40.2203059  59.8445417  58.9728098  39.8949548
  58.9718606  58.5431065  41.0549818  50.9062411  63.0971753  28.3364465
  50.2131656  63.1716108  27.6804501  50.6614163  62.3332096  28.8585982
  59.5776067  54.6567354  35.7403956  59.8577821  53.9890543  36.3664382
  60.3626674  54.8496450  35.2278619  63.4484925  63.0784988  39.4875531
  64.4002348  63.1783086  39.5087755  63.2788376  62.2863257  39.9973615
  61.4699305  60.1640571  39.6734932  60.8749237  60.4445584  38.9781420
  61.1849002  60.6534472  40.4451673  57.7656334  65.1687161  24.6445034
  58.7115439  65.0393369  24.7133452  57.3870579  64.4301823  25.1214463
  66.0767492  63.0902151  38.6476114  65.5606540  62.3060608  38.4606042
  66.9607440  62.7620868  38.8122633  63.7378219  56.8343167  34.6071926
  63.5403040  56.5258255  35.4915258  64.3477924  57.5604806  34.7369856
  57.6495027  69.2204907  46.1045691  58.5698036  69.3983506  46.2985738
  57.6144610  68.2760952  45.9525391  55.9499251  63.0937137  24.5799920
  55.0430707  62.7970250  24.6562633  56.2275232  62.7966955  23.7134206
  46.8677192  64.4143500  35.0298966  46.5479976  63.5608809  34.7373340
  46.3210620  64.6292079  35.7856933  50.6457099  67.1305941  38.7468473
  50.8643109  68.0623049  38.7656506  51.0582873  66.7713916  39.5323276
  57.5661317  57.6374027  30.7344161  56.7562045  57.2921112  31.1099407
  58.2545734  57.3281571  31.3231772  59.4951865  56.7152074  32.3568458
  60.0482904  57.1347527  33.0158481  59.7321952  55.7887822  32.3991414
  55.5184965  62.7039147  48.1371221  55.4181691  63.6533504  48.0683313
  55.3006507  62.3757386  47.2647292  54.7198036  59.9524072  24.7211899
  55.5817200  60.2778971  24.9807716  54.9048380  59.1655568  24.2084965
  46.7365452  68.0346412  36.9992088  46.0428923  67.6200365  36.4862042
  47.4838443  68.0766948  36.4025506  62.8730672  58.8252599  31.8647122
  62.2929341  59.4837403  31.4825174  62.6066605  58.0029943  31.4534539
  61.3234239  58.2257656  34.0668442  61.8234017  58.3374191  33.2582761
  61.9669847  57.9218709  34.7069251  55.3816235  66.1336286  46.9536283
  54.8983316  66.9336646  47.1600172  55.4677174  66.1444231  46.0003727
  48.6502194  67.9664666  34.8758102  48.6272882  68.0652353  33.9239986
  48.9602831  68.8129817  35.1975269  51.3089572  70.0240821  38.9904717
  52.2632826  69.9924763  38.9234648  51.1102096  69.5631445  39.8054943
  51.8988954  68.5941937  41.5575515  52.7181843  69.0886015  41.5810352
  52.1725762  67.6773905  41.5293082  61.6555550  60.9852689  30.9203470
  60.7681405  61.2702340  30.7023665  62.0709539  60.8246452  30.0730747
  65.0070087  61.0099210  34.6357809  65.7830477  61.4995663  34.9082426
  64.2818221  61.4357264  35.0929679  67.4442645  61.7226829  35.6931750
  68.0387136  61.4822565  34.9825058  67.5169229  61.0033960  36.3205286
  49.6639801  75.5660440  36.0074915  49.5294269  74.8060841  35.4412913
  49.2471863  76.2901340  35.5403704  61.6296574  66.5007225  31.1353760
  61.5731776  66.9575776  30.2961393  62.1824917  65.7397910  30.9576603
  65.4401380  62.2896957  31.9603880  65.1838314  61.8893593  32.7912087
  64.8154248  63.0040751  31.8354019  47.1523868  62.9280071  42.2567712
  47.7982732  62.4179025  42.7454937  46.9441020  63.6648752  42.8311137
  55.6727479  57.1920115  28.0091608  55.6606149  58.1361955  28.1659879
  56.5650901  57.0090261  27.7151069  59.4879598  53.7862892  32.2637545
  58.7211994  53.2321379  32.4094227  59.8990303  53.8584761  33.1251696
  51.4921359  60.0747688  46.3542726  52.3552821  59.7184493  46.5646050
  50.9186770  59.7361583  47.0418130  27.9794720  -2.6056004  23.8850433
  28.6173130  -2.7249257  23.1813774  27.8615563  -1.6575160  23.9438386
  24.7884426  -2.6528576  23.8211958  24.4502937  -2.7687511  22.9332493
  25.6574194  -3.0537411  23.8012964  25.2704209  -1.4993724  29.7798164
  25.2592850  -1.8940926  28.9078667  25.4324848  -2.2327652  30.3731935
  18.1935674   0.6958092  22.6493070  18.9856965   0.3548917  22.2339369
  18.4332324   0.8053067  23.5695223  21.9911470   1.2843388  28.7277348
  21.7001336   2.1889018  28.6124014  22.6268454   1.3259915  29.4421417
  22.9167677  -1.3379764  25.3178707  23.5131249  -1.5623741  24.6035670
  22.9742648  -2.0795018  25.9204155  26.9501355   0.9704803  25.7227141
  26.6502078   1.8729842  25.6142949  26.6052415   0.7036986  26.5748294
  21.9322135   7.7349123  18.6898109  21.8546165   8.6856949  18.7686590
  21.3283779   7.3894996  19.3473035  24.4239365  -5.0923011  31.3459476
  23.6472699  -4.5329091  31.3362341  25.0629928  -4.6066228  31.8674346
  22.6785737  -2.2837558  30.9077443  23.4200421  -1.7452514  30.6312267
  21.9722722  -1.6571269  31.0648995  28.1541077  -0.1408417  29.5049604
  28.5624433  -0.5826007  28.7604237  27.4318338  -0.7155790  29.7583797
  28.4769891   0.4192773  23.2601893  27.8478754   0.5838487  22.5577961
  28.0895553   0.8334383  24.0312857  32.3559123   1.3547211  20.6146257
  31.6710161   1.7346113  20.0643290  32.4402973   1.9642538  21.3478205
  29.6110055  -0.9992830  27.2141601  29.8226950  -0.3561070  26.5375982
  29.5639803  -1.8330513  26.7463531  24.0297853   0.1567181  20.5251978
  24.4936199   0.4354884  19.7356601  23.7654651  -0.7449374  20.3425069
  20.9221934  -0.2961337  23.4631742  21.4923291   0.1325931  22.8249226
  21.5130046  -0.5778752  24.1615927  30.7255883   1.8779126  25.3863958
  31.5473326   1.4759313  25.1046640  30.7218286   1.7747360  26.3380074
  24.4912486   1.4263169  27.5424668  24.5556919   1.8883576  28.3782840
  23.7823410   0.7960534  27.6706978  24.2060504   3.0931276  17.4103649
  24.0706179   3.9382812  17.8388497  24.7470316   3.2950554  16.6469583
  19.4684786   3.7272471  20.0654327  19.6451414   4.6490435  19.8775311
  20.2641619   3.4130890  20.4948707  25.8328980   3.7154843  31.5403991
  25.3892834   2.9291222  31.2224895  26.4946194   3.9033993  30.8747882
  20.5916101   5.2450645  26.0664669  21.1423527   5.1167708  25.2941663
  19.7527577   5.5445534  25.7159562  27.9310218   3.9957643  29.5685392
  27.9128694   4.8166524  29.0765661  28.8530138   3.8711718  29.7935533
  24.3883272   1.5101772  30.4108900  24.9211609   0.7490061  30.1808208
  23.8597354   1.2175424  31.1533055  32.4937524  -0.6397196  16.3828151
  31.7166967  -0.9786036  15.9383313  33.1729005  -0.6344573  15.7083116
  25.7535985   0.6387765  17.9227712  25.2257347  -0.0959476  17.6100950
  25.2523488   1.4162441  17.6767681  30.7328831  -1.1663215  23.0394759
  30.0752506  -0.4763953  23.1274887  31.5369230  -0.7766783  23.3828745
  29.5434290  -2.8118842  21.0898701  30.0566172  -2.1788850  21.5920410
  30.1935514  -3.4117646  20.7242061  26.8056664   7.1665482  13.8459372
  26.1318363   7.4697179  14.4544330  27.1922486   7.9694563  13.4964829
  30.3096086   2.1687159  19.2177843  29.8558413   1.3278069  19.2743034
  29.6790053   2.8048558  19.5552623  28.7529025   4.0063656  20.1527661
  29.0452000   4.5668713  19.4340027  29.2627646   4.2992217  20.9080820
  23.6261713  -3.8290809  21.5496471  23.6810323  -4.7816973  21.4738948
  22.8152915  -3.6731370  22.0337769  23.7162651   4.7844007  21.2421115
  23.6738829   5.0104854  20.3129647  24.6325349   4.5507382  21.3906916
  27.1628284  -4.7471925  28.1401744  27.5177672  -4.5200452  28.9996209
  27.8100416  -4.4153548  27.5178999  32.8926021  -1.6253489  18.8451073
  32.7543920  -1.4351893  17.9172262  32.5362240  -0.8634106  19.3019124
  32.9195401   0.4423038  23.8562344  33.3531908   0.3498327  24.7045398
  33.6326982   0.4180538  23.2182360  21.8328451   1.6607036  21.0383077
  22.6269050   1.1657356  20.8365652  21.1220144   1.1324899  20.6750783
  26.6523296   4.0425132  25.3895445  26.7060318   4.6116068  26.1573161
  25.7838077   4.2127017  25.0249482  33.7810951   0.4846738  26.3895230
  33.9746841   1.3892549  26.6354505  33.6811569   0.0254157  27.2233815
  28.8426059   0.6353481  31.9636110  28.6911566   0.4064033  31.0466194
  28.8330739   1.5924083  31.9767455  25.6111396  -1.7914606  26.9482377
  26.5403456  -1.6403447  26.7751344  25.1902426  -1.7030585  26.0931023
  24.4099727   2.2336058  24.7180914  24.2710813   1.8654843  25.5906852
  23.6214324   2.7483698  24.5464872  25.0047879   7.3345155  16.0606451
  25.1799635   6.8633198  16.8752074  24.3180667   7.9610921  16.2887712
  25.9604943   1.6117661  22.1069752  25.6254775   1.5718431  23.0027402
  25.4608888   0.9462377  21.6340162  22.5631487  -3.2694750  27.1206013
  23.2731106  -3.9101558  27.0792631  22.5200795  -3.0181855  28.0432194
  30.5518266   3.6672604  30.0412592  30.4930812   2.9831824  29.3743175
  30.9537784   4.4091594  29.5893218  19.5708965  10.4834517  22.8346311
  19.8105563  11.1153042  23.5125330  18.7278161  10.1322558  23.1211670
  30.5535673   1.6312188  28.2726572  29.6662452   1.2938109  28.3952971
  31.1234224   0.8995219  28.5095337  24.0836827   6.2913640  25.2387815
  24.0106998   7.0968611  25.7507120  23.6414220   6.4905606  24.4135836
  23.8726606   5.5285410  18.7490637  23.0894128   6.0707090  18.8428861
  24.5719351   6.0459390  19.1484878  26.5435510   6.1900474  27.3945974
  27.2563482   6.8247939  27.3221875  26.0525539   6.2864340  26.5785976
  28.2653037   0.0951727  18.9663265  27.3309316   0.2153189  18.7967970
  28.4429705  -0.8075807  18.7023275  21.5947424   3.9394917  28.2151545
  22.2956883   4.5731400  28.3680939  21.1242539   4.2809649  27.4547184
  29.7201819   2.2812867  16.4999452  29.9961663   2.1669462  17.4093326
  28.8506318   1.8830352  16.4611625  26.3555883   6.5299218  20.1432265
  26.5378278   5.7120874  20.6060017  27.1788869   6.7466910  19.7057155
  26.6898049   5.4567403  17.4047314  27.2185815   4.9459858  16.7917476
  26.9526269   5.1409933  18.2692847  25.4436283  -2.7640664  32.5270132
  24.7676920  -2.8646535  33.1972507  26.2663916  -2.9201450  32.9906129
  17.1915142   3.4731272  25.1482647  17.7768578   2.7274960  25.2810551
  16.9939980   3.7835229  26.0319311  20.0453797   6.5082520  20.1645090
  19.3764172   6.9928647  19.6809130  19.9066667   6.7551740  21.0788468
  24.1859065   8.5426263  26.7627748  24.7377373   8.7057885  27.5276833
  24.5265259   9.1330701  26.0907773  29.0369940   3.3687521  32.6176402
  29.5809844   3.9817479  32.1231357  28.4556785   3.9267099  33.1343415
  27.3227453   6.4908239  23.7491430  27.1978592   5.6897979  23.2402376
  27.9806544   6.9854432  23.2605400  29.3862361   4.2917259  25.3770980
  28.4392697   4.1722610  25.3049307  29.7345134   3.4039757  25.4597242
  26.3908794   4.0869975  21.5775332  26.2433757   3.1586683  21.7582902
  27.2162288   4.1090066  21.0932408  29.9942916   4.9098534  22.6640205
  30.9189464   4.7041395  22.5264656  29.8258220   4.6614935  23.5729547
  29.7838232   5.4284201  18.0202297  29.9575110   4.8630624  17.2676149
  30.2767124   6.2285096  17.8381787  30.7713405   4.7450966  15.1199195
  31.4664310   5.3657658  15.3386510  31.1136555   3.8946317  15.3951573
  32.6704828   2.1950671  16.6486526  33.1956152   2.5337944  15.9235846
  32.5827181   1.2597687  16.4649660  24.3324877   6.1084745  28.7776402
  24.6412003   5.8633892  29.6499102  25.1300359   6.3131383  28.2895273
  24.3545489   8.2622655  21.0081779  23.9150479   7.7699033  21.7014636
  25.1053606   7.7195622  20.7673854  16.8337828   4.4534195  21.0106407
  17.6595848   4.1537967  20.6305050  16.4831880   3.6841818  21.4596196
  21.8019361   3.8060664  23.0804081  21.1799370   3.1431369  22.7806308
  22.4724228   3.8321796  22.3977728  15.0346433   2.3720522  21.9695341
  14.1978341   1.9442696  21.7879342  15.0070078   2.5652965  22.9066132
  32.3598734   2.8283575  31.9537724  31.5694278   2.8107714  31.4142223
  32.1232089   3.3671869  32.7086760  32.4796609  -0.3223959  29.2670452
  32.5294614  -0.4873951  30.2085975  32.3710533  -1.1896700  28.8768333
  33.9814806   2.0972983  29.5112474  33.6899614   2.4602963  30.3475935
  33.3686937   1.3839991  29.3325806  35.1810488  -0.3374137  22.0315044
  36.0157380   0.1015667  22.1952604  35.3169617  -0.8135484  21.2123290
  32.2301994  -2.7794403  27.9792532  32.7056116  -2.5866756  27.1711383
  31.3067560  -2.7235217  27.7335915  28.0825533   5.1349868  15.1582871
  29.0156206   5.0695429  15.3615746  27.9948746   5.9706134  14.6997403
  25.1313764   0.2391276  32.8290998  26.0516774   0.4169875  33.0231044
  25.0963347  -0.7052678  32.6770697  22.8634972  -2.8477344  33.6781590
  22.3802054  -2.0476984  33.8845479  22.9495911  -2.8369400  32.7249034
  18.7908310   1.0427190  25.7150023  19.7451563   1.0111133  25.6479955
  18.5920833   0.5817814  26.5300249  19.3807692  -0.3871694  28.2820821
  20.2000581   0.1072385  28.3055658  19.6544500  -1.3039725  28.2538389
  17.1458539   6.5846810  22.7320221  17.0113007   5.8247211  22.1658219
  16.7290601   7.3087710  22.2649010  20.3027665   7.4816127  22.9438664
  20.1860049   8.4261559  22.8417354  19.4820111   7.1789688  23.3324463
  27.1595998   1.0147288  34.4805159  28.0287158   1.1887940  34.1191794
  26.6802750   1.8341705  34.3580888  21.3282179   8.1344389  26.1594592
  22.2309425   8.1667999  26.4761087  21.1019549   7.2044840  26.1740928
  23.0835781   6.8875375  22.8204671  22.1331412   6.8877237  22.7069043
  23.3868267   6.1408110  22.3040706  38.8188474  12.7235914  23.8850433
  39.4566884  12.6042661  23.1813774  38.7009317  13.6716758  23.9438386
  35.6278180  12.6763342  23.8211958  35.2896692  12.5604406  22.9332493
  36.4967949  12.2754507  23.8012964  31.4864996  14.5298818  19.8108849
  30.9229861  14.4388755  19.0425137  31.3717391  13.7098723  20.2911342
  36.1097963  13.8298193  29.7798164  36.0986604  13.4350992  28.9078667
  36.2718603  13.0964266  30.3731935  29.0329428  16.0250010  22.6493070
  29.8250720  15.6840834  22.2339369  29.2726078  16.1344985  23.5695223
  37.0664555  18.1969786  15.1223314  36.4152535  18.7823866  14.7357328
  37.8608918  18.7275981  15.1818351  30.9920182  15.2858923  15.5210448
  31.7651058  14.7387910  15.3823324  31.3445581  16.1503172  15.7324910
  33.3286460  11.4451589  13.1528898  33.5811980  10.9233110  12.3912361
  32.3911019  11.2817735  13.2555582  38.3729743  10.4487368  20.9603641
  39.1592832  10.0306791  20.6094059  38.6368447  11.3533460  21.1285290
  38.5439820  15.8860218  15.6592298  37.9085653  15.9594844  16.3713203
  38.2137226  16.4753817  14.9811378  43.7738170  10.3862601  21.8636620
  44.5063342   9.8161818  22.0974449  43.0177525   9.9984201  22.3043126
  33.0482749  13.3479695  15.3553273  32.9319007  12.6724598  16.0234358
  33.1585008  12.8612069  14.5385426  35.3914289  12.8089842  19.0599962
  35.0272497  12.2820463  19.7712884  36.2481405  12.4188311  18.8866448
  41.2963590   4.0984175  26.3231229  40.9646915   4.9679586  26.0992444
  40.7009203   3.7820459  27.0025259  35.0319776   7.8379742  14.0561311
  35.1994179   8.7059978  14.4231782  34.8416946   8.0007024  13.1322600
  37.7895110  16.2996721  25.7227141  37.4895833  17.2021760  25.6142949
  37.4446169  16.0328904  26.5748294  31.2407591  12.7510518  21.7563846
  30.3158088  12.6186732  21.9641538  31.4892004  13.5304737  22.2533788
  41.1892253   8.8179261  23.4024579  40.2809131   8.7494669  23.1083340
  41.1379849   9.2951206  24.2306404  35.0108997  10.2937399  15.0407978
  34.8908623  10.7394450  15.8793458  34.3161586  10.6422717  14.4821516
  28.6016402  12.3943791  22.5907635  28.7308783  12.6478270  23.5047047
  27.9213853  12.9871499  22.2712290  32.7715889  23.0641041  18.6898109
  32.6939919  24.0148866  18.7686590  32.1677533  22.7186914  19.3473035
  35.2633119  10.2368907  31.3459476  34.4866453  10.7962827  31.3362341
  35.9023682  10.7225690  31.8674346  43.0553900   7.0195699  25.1802453
  42.4128280   7.3128233  24.5342247  42.5508828   6.9048620  25.9855649
  40.7094063  10.7658873  15.8688312  41.6211920  10.9986259  15.6936009
  40.2003711  11.3495917  15.3063390  35.3465901  10.1256107  26.8783161
  36.1927096  10.5495521  27.0217810  35.2864539   9.4689731  27.5721724
  39.3163646  15.7484691  23.2601893  38.6872508  15.9130405  22.5577961
  38.9289308  16.1626301  24.0312857  43.1952878  16.6839129  20.6146257
  42.5103916  17.0638030  20.0643290  43.2796727  17.2934456  21.3478205
  38.4965347   7.7860476  28.5364335  38.2526278   8.5402536  27.9998611
  38.7725277   8.1645823  29.3711582  40.4503809  14.3299088  27.2141601
  40.6620705  14.9730848  26.5375982  40.4033558  13.4961404  26.7463531
  38.0530038   6.9416909  24.1178173  37.1914517   7.2398162  24.4094910
  38.0792473   7.1587307  23.1859205  34.8691608  15.4859099  20.5251978
  35.3329953  15.7646802  19.7356601  34.6048406  14.5842544  20.3425069
  33.8060494  11.6082252  17.3341544  34.5084537  12.0603295  17.8015470
  33.4741122  10.9666070  17.9621437  32.2540855  10.1994008  31.7092753
  31.6239516  10.8810289  31.9428150  32.1476943  10.0877090  30.7645891
  27.5485828   9.8665804  22.6358677  26.7584882  10.1223333  22.1598788
  28.0397075  10.6814142  22.7410718  41.5649637  17.2071043  25.3863958
  42.3867081  16.8051231  25.1046640  41.5612040  17.1039278  26.3380074
  29.5000573  10.2310383  19.5942154  28.7031736  10.3429078  20.1125649
  29.2726165  10.5697036  18.7283044  25.8323531  10.1196295  25.0673668
  26.0831569  11.0043305  25.3331244  26.3683079   9.9400896  24.2948760
  49.6555630  13.5509792  21.7348929  48.9019339  12.9817190  21.5792934
  49.7903172  13.5172456  22.6819564  35.0454258  18.4223194  17.4103649
  34.9099933  19.2674730  17.8388497  35.5864071  18.6242472  16.6469583
  31.5321598   4.5014774  34.0718004  31.1388544   3.9480973  34.7465648
  32.3487738   4.8125352  34.4624522  28.4983656  15.9398632  17.9831574
  29.0108176  16.7341882  18.1337139  29.1506369  15.2424923  17.9165175
  30.3078540  19.0564388  20.0654327  30.4845169  19.9782353  19.8775311
  31.1035374  18.7422808  20.4948707  34.4489559   5.9172653  31.6638261
  35.1899272   6.5179806  31.5842723  34.6807482   5.1750291  31.1056303
  38.3946722   1.9453756  25.9402542  38.0510991   2.8355398  25.8641653
  38.7625685   1.7555414  25.0772127  26.4632573  14.2687286  18.7591144
  27.3007795  14.6784295  18.5424852  26.6410840  13.3286729  18.7291338
  38.3597005  11.9362367  14.4474977  37.8443628  12.7066972  14.6863365
  38.0874313  11.2627503  15.0708039  35.9444116   6.7812068  19.5060216
  35.0885712   6.3918918  19.3265854  36.3571067   6.8604029  18.6460001
  37.4743262   4.3158411  23.9051775  36.9708058   4.2788546  23.0919581
  37.7673869   5.2251154  23.9648432  33.7186148   4.3997141  22.9117957
  34.5839145   4.2039950  22.5523847  33.7863657   4.1707493  23.8387314
  43.3331279  14.6894722  16.3828151  42.5560722  14.3505881  15.9383313
  44.0122760  14.6947345  15.7083116  38.1483308   9.8089459  16.2734759
  37.8433443  10.1235608  17.1244902  39.1013750   9.8870879  16.3162092
  36.5929740  15.9679683  17.9227712  36.0651101  15.2332442  17.6100950
  36.0917242  16.7454359  17.6767681  41.5722586  14.1628703  23.0394759
  40.9146260  14.8527964  23.1274887  42.3762985  14.5525135  23.3828745
  31.3248467   6.6299349  20.2834324  31.8992219   6.4074530  19.5507517
  31.9119450   6.6988043  21.0362925  40.3828044  12.5173076  21.0898701
  40.8959926  13.1503068  21.5920410  41.0329268  11.9174271  20.7242061
  31.6518054   8.6603810  14.3030209  30.8155367   8.9978496  14.6239484
  31.5122824   8.5252790  13.3657346  33.6271135   3.5040598  19.0109393
  32.9735547   3.1889615  18.3866008  33.5851609   2.8816338  19.7369216
  34.7382340  13.7859893  10.9262686  33.8309402  13.5549146  11.1253835
  35.2353372  12.9897512  11.1136667  37.6450419  22.4957400  13.8459372
  36.9712117  22.7989097  14.4544330  38.0316241  23.2986480  13.4964829
  36.8608875   9.9922531  23.3357041  35.9431437  10.2137478  23.1778729
  37.2769019  10.0668842  22.4768748  37.6443923  11.3913947  18.4659721
  38.3915742  11.9035344  18.1566843  37.9135513  11.0698000  19.3264115
  35.9170573  13.8872488  15.4486676  35.0081793  13.6031520  15.5459145
  35.9465657  14.3071566  14.5889982  41.1489841  17.4979077  19.2177843
  40.6952168  16.6569987  19.2743034  40.5183807  18.1340476  19.5552623
  40.0922760   8.4271063  20.4478511  39.3545517   7.9148449  20.7788753
  40.3449534   7.9871445  19.6361788  39.5922780  19.3355574  20.1527661
  39.8845754  19.8960631  19.4340027  40.1021401  19.6284135  20.9080820
  40.1934388   1.2047315  21.0420280  40.4993264   0.3444679  20.7546195
  40.9186992   1.7964935  20.8419274  26.4858744  11.6078002  19.4301878
  26.2883143  11.0147362  18.7052944  25.9305408  11.3030212  20.1477817
  34.4655467  11.5001108  21.5496471  34.5204077  10.5474945  21.4738948
  33.6546669  11.6560547  22.0337769  35.6146661  15.4281231  12.7874754
  35.1766091  14.7117090  12.3280392  36.3557102  15.6557346  12.2259846
  32.4047827  10.1178168  19.3086850  31.5915693  10.4172339  19.7152042
  32.9006821   9.7233857  20.0261332  38.0022039  10.5819992  28.1401744
  38.3571427  10.8091466  28.9996209  38.6494170  10.9138369  27.5178999
  43.7319776  13.7038428  18.8451073  43.5937674  13.8940024  17.9172262
  43.3755995  14.4657811  19.3019124  31.8961902   7.6896524  24.9248085
  32.5361281   7.5485283  24.2271048  31.0639433   7.4031037  24.5486687
  43.7589155  15.7714955  23.8562344  44.1925662  15.6790244  24.7045398
  44.4720736  15.7472456  23.2182360  28.9804969  11.1342036  17.1142830
  28.0502557  11.0726491  17.3312792  29.0762441  10.6117988  16.3179471
  28.8990518   7.6596849  19.7021072  29.1597336   8.5742182  19.5930232
  29.7207691   7.1921291  19.8517684  30.3715444   9.0734606  26.8719896
  31.0438497   8.8651968  26.2232545  29.5445230   8.8756692  26.4325128
  44.6204705  15.8138656  26.3895230  44.8140595  16.7184467  26.6354505
  44.5205323  15.3546075  27.2233815  36.2741016   5.6996547  28.8885557
  35.6268931   6.3986496  28.7950033  37.0442031   6.1332691  29.2561805
  36.4505150  13.5377312  26.9482377  37.3797210  13.6888471  26.7751344
  36.0296180  13.6261332  26.0931023  35.8441634  22.6637072  16.0606451
  36.0193390  22.1925116  16.8752074  35.1574422  23.2902839  16.2887712
  39.7357889  14.2865613  12.3806812  39.1187059  13.5612441  12.2839864
  39.2674377  15.0474973  12.0373886  32.1154176   9.0462386  28.9401652
  31.5791533   8.5953124  29.5923249  31.5270884   9.1808295  28.1972117
  31.5256435   8.5051037  11.5028116  30.6485901   8.3839838  11.1390363
  32.0014188   7.7137116  11.2507005  23.0458575  13.2928197  21.5969623
  23.7329615  12.9789927  21.0090639  22.8906703  14.1969562  21.3236875
  27.8493297   8.1818394  26.0254647  27.7651486   7.5744063  25.2905057
  27.0276003   8.6727412  26.0264143  34.7120361  20.8577328  18.7490637
  33.9287883  21.3999008  18.8428861  35.4113106  21.3751307  19.1484878
  38.0217011   6.6671957  21.3924842  38.5185710   5.9141919  21.0725912
  37.2503992   6.7036274  20.8268051  45.8746768  12.3712323  23.0343133
  45.8636644  13.2537038  22.6637067  45.0064148  12.0183873  22.8397671
  39.1046791  15.4243644  18.9663265  38.1703070  15.5445107  18.7967970
  39.2823460  14.5216111  18.7023275  34.6051980   8.8089340  21.1196527
  34.2349767   8.2560380  21.8077432  35.1011072   8.2047474  20.5671527
  42.4919343  11.2660964  19.5013300  42.9579795  12.0988955  19.4273602
  42.9426843  10.8005945  20.2058558  40.5595574  17.6104785  16.4999452
  40.8355418  17.4961379  17.4093326  39.6900073  17.2122270  16.4611625
  40.4636006   3.6341551  23.5404201  39.5499085   3.8645777  23.7086408
  40.8929107   3.7179995  24.3918233  40.2342464  11.8231443  26.0404095
  39.5813914  12.0707350  25.3856548  40.6122844  11.0095581  25.7066572
  37.1949638  21.8591136  20.1432265  37.3772032  21.0412792  20.6060017
  38.0182624  22.0758828  19.7057155  37.5291803  20.7859321  17.4047314
  38.0579570  20.2751775  16.7917476  37.7920023  20.4701851  18.2692847
  36.2830037  12.5651254  32.5270132  35.6070674  12.4645383  33.1972507
  37.1057671  12.4090467  32.9906129  30.8847551  21.8374438  20.1645090
  30.2157927  22.3220565  19.6809130  30.7460421  22.0843658  21.0788468
  22.6226551  11.3728790  23.8687090  22.6610650  10.8392381  24.6624208
  22.1166844  10.8463996  23.2498068  30.0017313   6.2193331  27.3649633
  30.0658640   7.0808162  26.9527030  29.9384433   5.6067333  26.6321991
  29.4769586   8.2916463  31.0122667  30.1041625   7.9093541  31.6260191
  28.6197505   8.0730665  31.3778359  26.2535128  10.0992893  16.9441022
  26.5488570   9.1903571  16.8908075  25.3523164  10.0780632  16.6222024
  29.7829375   8.1748889  22.9268570  29.0615961   8.7884857  22.7876044
  30.5722631   8.7106654  22.8485216  40.2256116  19.6209177  25.3770980
  39.2786451  19.5014528  25.3049307  40.5738889  18.7331675  25.4597242
  32.5855689   5.5103316  29.2009222  33.1090091   5.7565612  29.9635531
  32.3668022   6.3423350  28.7812359  27.9822970   7.7806990  17.0680347
  27.6535676   6.9004369  16.8855453  28.3362341   7.7254659  17.9556736
  37.2302549  19.4161893  21.5775332  37.0827511  18.4878600  21.7582902
  38.0556042  19.4381984  21.0932408  31.0964793   8.0679960  17.4355825
  31.4360866   8.5965881  16.7134433  31.5436914   8.4060366  18.2114391
  40.8336671  20.2390452  22.6640205  41.7583218  20.0333313  22.5264656
  40.6651974  19.9906853  23.5729547  33.7908234   6.4517011  26.8858893
  33.4505054   5.6524824  27.2879572  33.0847240   6.7518722  26.3135726
  34.4424706   3.5366323  25.3386216  35.2650775   3.0626801  25.2165106
  34.6862769   4.3156807  25.8384902  33.0832940   6.5654582  15.6349117
  33.8041303   6.9435834  15.1312834  32.4598244   7.2843458  15.7384095
  37.2264063   7.2699731  16.5707450  37.4427678   8.1524368  16.2696278
  36.7458130   6.8785944  15.8413092  31.9663285  10.2285444  23.1478194
  31.8207865  10.5425747  24.0402476  31.4888488  10.8470344  22.5949093
  33.8259667   7.2187992  23.1959084  33.8121236   6.3229085  22.8591382
  34.5432096   7.2258655  23.8297370  35.6785798   7.6525332  25.2412211
  35.4203576   8.5742403  25.2396542  35.1470839   7.2555766  25.9312675
  40.6231987  20.7576119  18.0202297  40.7968864  20.1922542  17.2676149
  41.1160878  21.5577014  17.8381787  33.2296563   6.1002372  18.4646654
  33.3512475   5.1719018  18.6637541  32.9398606   6.1141058  17.5524969
  36.0987754   3.7857282  21.6013374  36.1209451   3.8496616  20.6465353
  36.5155813   2.9461791  21.7953880  46.4771378  13.5212542  19.6392596
  46.9202524  12.7719867  19.2411720  45.5997888  13.5122678  19.2566328
  41.6107159  20.0742883  15.1199195  42.3058064  20.6949576  15.3386510
  41.9530310  19.2238235  15.3951573  43.5098583  17.5242589  16.6486526
  44.0349907  17.8629862  15.9235846  43.4220935  16.5889604  16.4649660
  35.1939243  23.5914572  21.0081779  34.7544234  23.0990951  21.7014636
  35.9447360  23.0487540  20.7673854  27.6731582  19.7826113  21.0106407
  28.4989602  19.4829885  20.6305050  27.3225634  19.0133736  21.4596196
  25.8740187  17.7012440  21.9695341  25.0372096  17.2734614  21.7879342
  25.8463833  17.8944883  22.9066132  32.7137643   7.6134369  32.6736587
  32.7625798   8.4896492  32.2914356  33.2560157   7.0711762  32.1008230
  32.2026622  17.6856505  16.5562541  32.3514743  18.3691969  15.9029214
  33.0093066  17.6661595  17.0711997  40.6094126  10.9898887  30.5829759
  41.5103989  10.8505352  30.2913757  40.6842101  11.1553342  31.5227936
  34.9436931   8.3665742  29.4282945  34.0740241   8.6599308  29.1565534
  35.1796412   8.9506187  30.1490209  46.0204243  14.9917780  22.0315044
  46.8551134  15.4307584  22.1952604  46.1563372  14.5156434  21.2123290
  43.0695749  12.5497515  27.9792532  43.5449870  12.7425161  27.1711383
  42.1461314  12.6056701  27.7335915  29.9579255  13.7121682  17.5623610
  29.7125297  12.8084012  17.7603820  30.1275170  13.7138833  16.6203088
  37.6475965   4.5845359  26.9448366  38.1657909   5.3206386  26.6194854
  37.2931098   4.8909352  27.7795125  29.2274903   9.4450040  15.0609771
  28.5344148   9.5194395  14.4049807  28.9826655   8.6810384  15.5831288
  37.8988559   1.0045641  22.4649262  38.1790313   0.3368830  23.0909689
  38.6839166   1.1974737  21.9523926  35.7022028  20.1804635  14.0274288
  35.1295995  20.7994822  13.5744760  36.2754822  20.7303997  14.5614210
  41.7697418   9.4263275  26.2120837  42.7214841   9.5261373  26.2333061
  41.6000868   8.6341544  26.7218922  39.7911797   6.5118858  26.3980238
  39.1961729   6.7923871  25.7026727  39.5061494   7.0012759  27.1696979
  38.9219288  20.4641785  15.1582871  39.8549961  20.3987347  15.3615746
  38.8342501  21.2998052  14.6997403  41.5507304  19.7807656  12.1186818
  41.4720936  19.4467519  13.0122576  42.3716971  20.2729424  12.1178291
  44.2485496  12.6469395  25.3263137  44.2161816  11.7085396  25.5122821
  44.8586119  12.7253432  24.5928962  36.0868826  11.5165448  11.3690341
  37.0327931  11.3871656  11.4378759  35.7083071  10.7780110  11.8459769
  44.3979984   9.4380438  25.3721420  43.8819033   8.6538895  25.1851349
  45.2819933   9.1099155  25.5367940  42.0590711   3.1821454  21.3317233
  41.8615532   2.8736542  22.2160565  42.6690417   3.9083093  21.4615163
  50.0662045  13.7085402  24.4669174  50.7965434  13.4470690  25.0276877
  49.4568991  12.9714124  24.5071242  48.1477343  11.8493264  25.0643625
  47.4210506  11.7149229  24.4560117  47.7324629  12.1570093  25.8700343
  35.9707519  15.5683194  32.8290998  36.8910528  15.7461793  33.0231044
  35.9357102  14.6239239  32.6770697  34.2711744   9.4415424  11.3045226
  33.3643199   9.1448537  11.3807940  34.5487725   9.1445242  10.4379512
  25.1889684  10.7621788  21.7544273  24.8692468   9.9087096  21.4618647
  24.6423112  10.9770366  22.5102240  35.8873809   3.9852314  17.4589468
  35.0774538   3.6399399  17.8344714  36.5758226   3.6759858  18.0477079
  37.8164358   3.0630361  19.0813764  38.3695396   3.4825814  19.7403787
  38.0534444   2.1366109  19.1236720  33.8397457   9.0517434  34.8616528
  33.7394184  10.0011791  34.7928619  33.6218999   8.7235673  33.9892598
  25.0577944  14.3824699  23.7237394  24.3641415  13.9678652  23.2107349
  25.8050935  14.4245236  23.1270813  41.1943165   5.1730886  18.5892428
  40.6141834   5.8315690  18.2070481  40.9279097   4.3508231  18.1779846
  39.6446731   4.5735944  20.7913749  40.1446509   4.6852478  19.9828068
  40.2882339   4.2696997  21.4314557  33.7028727  12.4814573  33.6781590
  33.2195809  13.2814933  33.8845479  33.7889666  12.4922518  32.7249034
  26.9714686  14.3142953  21.6003409  26.9485375  14.4130640  20.6485292
  27.2815323  15.1608104  21.9220575  39.9768043   7.3330976  17.6448777
  39.0893898   7.6180627  17.4268971  40.3922032   7.1724740  16.7976054
  43.3282579   7.3577497  21.3603116  44.1042969   7.8473950  21.6327733
  42.6030713   7.7835552  21.8174985  45.7655137   8.0705117  22.4177057
  46.3599628   7.8300853  21.7070365  45.8381721   7.3512247  23.0450593
  39.1211256  17.0975651  11.7396797  39.8247106  17.3025654  12.3554452
  38.3973905  17.6652413  12.0045880  39.9509066  12.8485512  17.8599067
  39.8944268  13.3054064  17.0206699  40.5037409  12.0876197  17.6821910
  43.7613872   8.6375244  18.6849186  43.5050807   8.2371880  19.5157394
  43.1366740   9.3519038  18.5599325  48.0726210  11.3771317  21.1920478
  47.5125768  11.4464507  21.9652040  47.4669714  11.2012302  20.4719974
  41.0297954  17.5358180  13.7895257  41.8643557  17.1039379  13.6072732
  40.8682296  17.3640194  14.7172151  40.6843846  14.0390294  15.1551596
  40.6292650  13.8734565  14.2140040  40.0589901  14.7466326  15.3113786
  25.4736361   9.2758358  28.9813018  26.1195224   8.7657312  29.4700243
  25.2653512  10.0127040  29.5556443  33.9939971   3.5398403  14.7336914
  33.9818641   4.4840242  14.8905185  34.8863393   3.3568548  14.4396376
  37.8092091   0.1341179  18.9882851  37.0424486  -0.4200334  19.1339534
  38.2202796   0.2063048  19.8497003  29.8133852   6.4225975  33.0788032
  30.6765313   6.0662780  33.2891357  29.2399262   6.0839870  33.7663437
  49.6582229  28.0527831  23.8850433  50.2960639  27.9334579  23.1813774
  49.5403072  29.0008675  23.9438386  42.3258751  29.8590736  19.8108849
  41.7623616  29.7680673  19.0425137  42.2111146  29.0390640  20.2911342
  47.9058309  33.5261704  15.1223314  47.2546289  34.1115784  14.7357328
  48.7002672  34.0567898  15.1818351  41.8313936  30.6150841  15.5210448
  42.6044812  30.0679828  15.3823324  42.1839335  31.4795090  15.7324910
  44.1680214  26.7743507  13.1528898  44.4205735  26.2525028  12.3912361
  43.2304773  26.6109652  13.2555582  49.2123497  25.7779285  20.9603641
  49.9986586  25.3598708  20.6094059  49.4762201  26.6825377  21.1285290
  49.3833574  31.2152136  15.6592298  48.7479407  31.2886762  16.3713203
  49.0530981  31.8045734  14.9811378  54.6131924  25.7154518  21.8636620
  55.3457096  25.1453735  22.0974449  53.8571280  25.3276119  22.3043126
  43.8876503  28.6771613  15.3553273  43.7712761  28.0016516  16.0234358
  43.9978763  28.1903987  14.5385426  46.2308044  28.1381760  19.0599962
  45.8666251  27.6112381  19.7712884  47.0875160  27.7480229  18.8866448
  52.1357345  19.4276093  26.3231229  51.8040669  20.2971503  26.0992444
  51.5402958  19.1112377  27.0025259  45.8713531  23.1671660  14.0561311
  46.0387933  24.0351896  14.4231782  45.6810700  23.3298941  13.1322600
  48.6288864  31.6288638  25.7227141  48.3289587  32.5313677  25.6142949
  48.2839924  31.3620822  26.5748294  52.0286008  24.1471179  23.4024579
  51.1202885  24.0786587  23.1083340  51.9773604  24.6243124  24.2306404
  45.8502752  25.6229317  15.0407978  45.7302377  26.0686368  15.8793458
  45.1555340  25.9714635  14.4821516  43.6109644  38.3932959  18.6898109
  43.5333674  39.3440784  18.7686590  43.0071288  38.0478831  19.3473035
  53.8947654  22.3487617  25.1802453  53.2522035  22.6420150  24.5342247
  53.3902583  22.2340537  25.9855649  51.5487818  26.0950790  15.8688312
  52.4605674  26.3278177  15.6936009  51.0397465  26.6787834  15.3063390
  46.1859656  25.4548025  26.8783161  47.0320851  25.8787438  27.0217810
  46.1258293  24.7981649  27.5721724  50.1557400  31.0776609  23.2601893
  49.5266263  31.2422323  22.5577961  49.7683062  31.4918218  24.0312857
  54.0346632  32.0131047  20.6146257  53.3497670  32.3929948  20.0643290
  54.1190481  32.6226373  21.3478205  49.3359101  23.1152393  28.5364335
  49.0920033  23.8694454  27.9998611  49.6119032  23.4937741  29.3711582
  51.2897564  29.6591006  27.2141601  51.5014459  30.3022765  26.5375982
  51.2427312  28.8253322  26.7463531  48.8923793  22.2708826  24.1178173
  48.0308272  22.5690080  24.4094910  48.9186227  22.4879225  23.1859205
  45.7085362  30.8151017  20.5251978  46.1723708  31.0938720  19.7356601
  45.4442160  29.9134461  20.3425069  44.6454248  26.9374169  17.3341544
  45.3478292  27.3895213  17.8015470  44.3134877  26.2957988  17.9621437
  38.3879582  25.1957722  22.6358677  37.5978636  25.4515250  22.1598788
  38.8790830  26.0106060  22.7410718  52.4043392  32.5362961  25.3863958
  53.2260835  32.1343148  25.1046640  52.4005795  32.4331195  26.3380074
  40.3394328  25.5602301  19.5942154  39.5425491  25.6720995  20.1125649
  40.1119920  25.8988953  18.7283044  60.4949385  28.8801709  21.7348929
  59.7413093  28.3109108  21.5792934  60.6296926  28.8464374  22.6819564
  45.8848013  33.7515112  17.4103649  45.7493688  34.5966648  17.8388497
  46.4257825  33.9534389  16.6469583  41.1472295  34.3856306  20.0654327
  41.3238923  35.3074271  19.8775311  41.9429128  34.0714725  20.4948707
  49.2340476  17.2745674  25.9402542  48.8904746  18.1647315  25.8641653
  49.6019439  17.0847331  25.0772127  37.3026327  29.5979204  18.7591144
  38.1401549  30.0076213  18.5424852  37.4804595  28.6578646  18.7291338
  49.1990759  27.2654285  14.4474977  48.6837383  28.0358889  14.6863365
  48.9268068  26.5919421  15.0708039  46.7837870  22.1103986  19.5060216
  45.9279467  21.7210836  19.3265854  47.1964822  22.1895946  18.6460001
  48.3137017  19.6450329  23.9051775  47.8101812  19.6080464  23.0919581
  48.6067624  20.5543072  23.9648432  44.5579903  19.7289059  22.9117957
  45.4232899  19.5331867  22.5523847  44.6257412  19.4999410  23.8387314
  54.1725033  30.0186639  16.3828151  53.3954476  29.6797799  15.9383313
  54.8516514  30.0239263  15.7083116  48.9877062  25.1381377  16.2734759
  48.6827198  25.4527526  17.1244902  49.9407504  25.2162797  16.3162092
  47.4323494  31.2971600  17.9227712  46.9044856  30.5624360  17.6100950
  46.9310997  32.0746277  17.6767681  52.4116340  29.4920621  23.0394759
  51.7540015  30.1819882  23.1274887  53.2156739  29.8817053  23.3828745
  42.1642222  21.9591266  20.2834324  42.7385974  21.7366448  19.5507517
  42.7513204  22.0279961  21.0362925  51.2221799  27.8464993  21.0898701
  51.7353681  28.4794985  21.5920410  51.8723023  27.2466189  20.7242061
  42.4911809  23.9895728  14.3030209  41.6549121  24.3270414  14.6239484
  42.3516579  23.8544707  13.3657346  44.4664889  18.8332515  19.0109393
  43.8129302  18.5181533  18.3866008  44.4245364  18.2108256  19.7369216
  45.5776094  29.1151810  10.9262686  44.6703156  28.8841064  11.1253835
  46.0747126  28.3189430  11.1136667  48.4844173  37.8249318  13.8459372
  47.8105872  38.1281014  14.4544330  48.8709995  38.6278398  13.4964829
  47.7002630  25.3214449  23.3357041  46.7825191  25.5429396  23.1778729
  48.1162773  25.3960759  22.4768748  48.4837678  26.7205865  18.4659721
  49.2309497  27.2327262  18.1566843  48.7529267  26.3989917  19.3264115
  46.7564328  29.2164405  15.4486676  45.8475547  28.9323438  15.5459145
  46.7859412  29.6363484  14.5889982  51.9883595  32.8270995  19.2177843
  51.5345922  31.9861905  19.2743034  51.3577562  33.4632393  19.5552623
  50.9316515  23.7562981  20.4478511  50.1939272  23.2440367  20.7788753
  51.1843288  23.3163362  19.6361788  50.4316534  34.6647492  20.1527661
  50.7239509  35.2252549  19.4340027  50.9415155  34.9576053  20.9080820
  51.0328142  16.5339233  21.0420280  51.3387019  15.6736596  20.7546195
  51.7580747  17.1256853  20.8419274  37.3252498  26.9369919  19.4301878
  37.1276898  26.3439280  18.7052944  36.7699162  26.6322130  20.1477817
  45.3049222  26.8293026  21.5496471  45.3597832  25.8766862  21.4738948
  44.4940424  26.9852465  22.0337769  46.4540416  30.7573149  12.7874754
  46.0159845  30.0409008  12.3280392  47.1950856  30.9849264  12.2259846
  43.2441582  25.4470086  19.3086850  42.4309447  25.7464256  19.7152042
  43.7400576  25.0525774  20.0261332  45.3950160  35.4427843  21.2421115
  45.3526338  35.6688689  20.3129647  46.3112858  35.2091217  21.3906916
  48.8415793  25.9111910  28.1401744  49.1965181  26.1383383  28.9996209
  49.4887925  26.2430287  27.5178999  54.5713530  29.0330346  18.8451073
  54.4331429  29.2231942  17.9172262  54.2149749  29.7949729  19.3019124
  42.7355656  23.0188441  24.9248085  43.3755036  22.8777200  24.2271048
  41.9033187  22.7322955  24.5486687  54.5982910  31.1006873  23.8562344
  55.0319417  31.0082162  24.7045398  55.3114491  31.0764374  23.2182360
  43.5115960  32.3190872  21.0383077  44.3056559  31.8241192  20.8365652
  42.8007653  31.7908735  20.6750783  39.8198724  26.4633953  17.1142830
  38.8896312  26.4018409  17.3312792  39.9156196  25.9409906  16.3179471
  39.7384273  22.9888766  19.7021072  39.9991090  23.9034099  19.5930232
  40.5601445  22.5213209  19.8517684  41.2109198  24.4026523  26.8719896
  41.8832252  24.1943885  26.2232545  40.3838985  24.2048609  26.4325128
  55.4598460  31.1430574  26.3895230  55.6534350  32.0476384  26.6354505
  55.3599078  30.6837993  27.2233815  47.1134770  21.0288464  28.8885557
  46.4662685  21.7278414  28.7950033  47.8835786  21.4624608  29.2561805
  46.6835388  37.9928990  16.0606451  46.8587144  37.5217033  16.8752074
  45.9968176  38.6194756  16.2887712  47.6392452  32.2701496  22.1069752
  47.3042284  32.2302266  23.0027402  47.1396397  31.6046212  21.6340162
  50.5751643  29.6157531  12.3806812  49.9580814  28.8904359  12.2839864
  50.1068132  30.3766891  12.0373886  52.2305775  34.3256439  30.0412592
  52.1718321  33.6415659  29.3743175  52.6325293  35.0675429  29.5893218
  41.2496474  41.1418353  22.8346311  41.4893072  41.7736877  23.5125330
  40.4065670  40.7906393  23.1211670  42.3650189  23.8342955  11.5028116
  41.4879655  23.7131756  11.1390363  42.8407942  23.0429033  11.2507005
  52.2323182  32.2896023  28.2726572  51.3449961  31.9521945  28.3952971
  52.8021733  31.5579054  28.5095337  45.5514115  36.1869245  18.7490637
  44.7681637  36.7290925  18.8428861  46.2506860  36.7043225  19.1484878
  48.8610765  21.9963875  21.3924842  49.3579465  21.2433837  21.0725912
  48.0897747  22.0328191  20.8268051  56.7140523  27.7004240  23.0343133
  56.7030399  28.5828956  22.6637067  55.8457902  27.3475791  22.8397671
  49.9440546  30.7535562  18.9663265  49.0096825  30.8737024  18.7967970
  50.1217214  29.8508029  18.7023275  45.4445734  24.1381258  21.1196527
  45.0743522  23.5852298  21.8077432  45.9404826  23.5339391  20.5671527
  53.3313097  26.5952881  19.5013300  53.7973549  27.4280873  19.4273602
  53.7820598  26.1297863  20.2058558  51.3989328  32.9396703  16.4999452
  51.6749172  32.8253297  17.4093326  50.5293827  32.5414187  16.4611625
  51.3029760  18.9633468  23.5404201  50.3892840  19.1937695  23.7086408
  51.7322861  19.0471912  24.3918233  51.0736219  27.1523360  26.0404095
  50.4207669  27.3999268  25.3856548  51.4516598  26.3387498  25.7066572
  48.0343392  37.1883053  20.1432265  48.2165787  36.3704709  20.6060017
  48.8576378  37.4050746  19.7057155  48.3685558  36.1151239  17.4047314
  48.8973324  35.6043693  16.7917476  48.6313777  35.7993769  18.2692847
  41.7241306  37.1666355  20.1645090  41.0551681  37.6512483  19.6809130
  41.5854176  37.4135576  21.0788468  37.0928883  25.4284810  16.9441022
  37.3882324  24.5195489  16.8908075  36.1916919  25.4072550  16.6222024
  49.0014962  37.1492074  23.7491430  48.8766101  36.3481814  23.2402376
  49.6594053  37.6438268  23.2605400  40.6223130  23.5040807  22.9268570
  39.9009716  24.1176774  22.7876044  41.4116386  24.0398572  22.8485216
  51.0649870  34.9501094  25.3770980  50.1180206  34.8306446  25.3049307
  51.4132643  34.0623592  25.4597242  38.8216725  23.1098908  17.0680347
  38.4929431  22.2296287  16.8855453  39.1756095  23.0546577  17.9556736
  48.0696303  34.7453811  21.5775332  47.9221266  33.8170518  21.7582902
  48.8949797  34.7673901  21.0932408  41.9358548  23.3971878  17.4355825
  42.2754620  23.9257799  16.7134433  42.3830668  23.7352284  18.2114391
  51.6730425  35.5682369  22.6640205  52.5976973  35.3625231  22.5264656
  51.5045729  35.3198770  23.5729547  44.6301989  21.7808928  26.8858893
  44.2898809  20.9816741  27.2879572  43.9240995  22.0810639  26.3135726
  45.2818460  18.8658241  25.3386216  46.1044530  18.3918719  25.2165106
  45.5256524  19.6448725  25.8384902  43.9226695  21.8946499  15.6349117
  44.6435057  22.2727752  15.1312834  43.2991999  22.6135376  15.7384095
  48.0657818  22.5991648  16.5707450  48.2821432  23.4816286  16.2696278
  47.5851885  22.2077862  15.8413092  42.8057039  25.5577361  23.1478194
  42.6601620  25.8717665  24.0402476  42.3282243  26.1762262  22.5949093
  44.6653422  22.5479909  23.1959084  44.6514991  21.6521003  22.8591382
  45.3825850  22.5550573  23.8297370  46.5179553  22.9817250  25.2412211
  46.2597331  23.9034320  25.2396542  45.9864593  22.5847684  25.9312675
  51.4625741  36.0868037  18.0202297  51.6362619  35.5214459  17.2676149
  51.9554633  36.8868932  17.8381787  44.0690318  21.4294290  18.4646654
  44.1906229  20.5010936  18.6637541  43.7792360  21.4432976  17.5524969
  46.9381508  19.1149200  21.6013374  46.9603205  19.1788533  20.6465353
  47.3549567  18.2753709  21.7953880  57.3165133  28.8504460  19.6392596
  57.7596279  28.1011785  19.2411720  56.4391643  28.8414596  19.2566328
  52.4500914  35.4034801  15.1199195  53.1451819  36.0241494  15.3386510
  52.7924064  34.5530152  15.3951573  54.3492337  32.8534507  16.6486526
  54.8743661  33.1921779  15.9235846  54.2614690  31.9181522  16.4649660
  46.0332998  38.9206490  21.0081779  45.5937988  38.4282869  21.7014636
  46.7841115  38.3779458  20.7673854  54.0386243  33.4867410  31.9537724
  53.2481787  33.4691549  31.4142223  53.8019598  34.0255704  32.7086760
  54.1584118  30.3359877  29.2670452  54.2082123  30.1709884  30.2085975
  54.0498042  29.4687136  28.8768333  43.0420377  33.0148422  16.5562541
  43.1908497  33.6983887  15.9029214  43.8486820  32.9953512  17.0711997
  51.4487881  26.3190805  30.5829759  52.3497743  26.1797270  30.2913757
  51.5235855  26.4845260  31.5227936  45.7830686  23.6957659  29.4282945
  44.9133995  23.9891226  29.1565534  46.0190166  24.2798104  30.1490209
  55.6602315  32.7556818  29.5112474  55.3687123  33.1186799  30.3475935
  55.0474446  32.0423826  29.3325806  56.8597997  30.3209698  22.0315044
  57.6944889  30.7599502  22.1952604  56.9957126  29.8448351  21.2123290
  53.9089503  27.8789433  27.9792532  54.3843625  28.0717079  27.1711383
  52.9855069  27.9348619  27.7335915  40.7973010  29.0413600  17.5623610
  40.5519052  28.1375930  17.7603820  40.9668924  29.0430750  16.6203088
  48.4869720  19.9137276  26.9448366  49.0051664  20.6498303  26.6194854
  48.1324852  20.2201270  27.7795125  40.0668657  24.7741958  15.0609771
  39.3737902  24.8486313  14.4049807  39.8220409  24.0102301  15.5831288
  48.7382314  16.3337559  22.4649262  49.0184068  15.6660748  23.0909689
  49.5232921  16.5266655  21.9523926  46.5415782  35.5096553  14.0274288
  45.9689749  36.1286740  13.5744760  47.1148576  36.0595915  14.5614210
  52.6091172  24.7555193  26.2120837  53.5608595  24.8553291  26.2333061
  52.4394623  23.9633461  26.7218922  50.6305552  21.8410776  26.3980238
  50.0355484  22.1215789  25.7026727  50.3455248  22.3304677  27.1696979
  49.7613042  35.7933703  15.1582871  50.6943715  35.7279265  15.3615746
  49.6736255  36.6289970  14.6997403  52.3901059  35.1099573  12.1186818
  52.3114690  34.7759437  13.0122576  53.2110726  35.6021341  12.1178291
  55.0879250  27.9761313  25.3263137  55.0555570  27.0377313  25.5122821
  55.6979874  28.0545349  24.5928962  46.9262581  26.8457366  11.3690341
  47.8721686  26.7163574  11.4378759  46.5476826  26.1072027  11.8459769
  55.2373739  24.7672356  25.3721420  54.7212787  23.9830813  25.1851349
  56.1213687  24.4391073  25.5367940  52.8984465  18.5113372  21.3317233
  52.7009287  18.2028460  22.2160565  53.5084171  19.2375011  21.4615163
  60.9055800  29.0377319  24.4669174  61.6359188  28.7762608  25.0276877
  60.2962745  28.3006041  24.5071242  58.9871097  27.1785182  25.0643625
  58.2604261  27.0441147  24.4560117  58.5718384  27.4862011  25.8700343
  45.1105498  24.7707342  11.3045226  44.2036953  24.4740455  11.3807940
  45.3881479  24.4737160  10.4379512  46.7267564  19.3144232  17.4589468
  45.9168292  18.9691317  17.8344714  47.4151981  19.0051775  18.0477079
  48.6558112  18.3922279  19.0813764  49.2089151  18.8117732  19.7403787
  48.8928198  17.4658027  19.1236720  43.8804283  21.6294277  11.4457205
  44.7423447  21.9549176  11.7053023  44.0654627  20.8425773  10.9330271
  52.0336919  20.5022804  18.5892428  51.4535588  21.1607608  18.2070481
  51.7672852  19.6800148  18.1779846  50.4840486  19.9027861  20.7913749
  50.9840264  20.0144396  19.9828068  51.1276093  19.5988914  21.4314557
  37.8108441  29.6434871  21.6003409  37.7879129  29.7422558  20.6485292
  38.1209077  30.4900021  21.9220575  50.8161797  22.6622894  17.6448777
  49.9287652  22.9472545  17.4268971  51.2315786  22.5016657  16.7976054
  54.1676333  22.6869415  21.3603116  54.9436723  23.1765867  21.6327733
  53.4424467  23.1127469  21.8174985  56.6048892  23.3997034  22.4177057
  57.1993383  23.1592770  21.7070365  56.6775476  22.6804165  23.0450593
  49.9605011  32.4267569  11.7396797  50.6640861  32.6317571  12.3554452
  49.2367659  32.9944331  12.0045880  50.7902821  28.1777430  17.8599067
  50.7338022  28.6345981  17.0206699  51.3431163  27.4168115  17.6821910
  54.6007627  23.9667162  18.6849186  54.3444561  23.5663798  19.5157394
  53.9760495  24.6810956  18.5599325  58.9119965  26.7063235  21.1920478
  58.3519523  26.7756424  21.9652040  58.3063468  26.5304220  20.4719974
  41.9815173  38.1399962  22.9438664  41.8647558  39.0845395  22.8417354
  41.1607620  37.8373524  23.3324463  51.8691708  32.8650098  13.7895257
  52.7037312  32.4331296  13.6072732  51.7076051  32.6932112  14.7172151
  51.5237600  29.3682211  15.1551596  51.4686404  29.2026483  14.2140040
  50.8983655  30.0758244  15.3113786  44.8333726  18.8690320  14.7336914
  44.8212395  19.8132160  14.8905185  45.7257148  18.6860466  14.4396376
  44.7623290  37.5459211  22.8204671  43.8118921  37.5461072  22.7069043
  45.0655776  36.7991945  22.3040706  48.6485845  15.4633097  18.9882851
  47.8818241  14.9091584  19.1339534  49.0596550  15.5354966  19.8497003
  60.4975983  43.3819749  23.8850433  61.1354393  43.2626496  23.1813774
  60.3796826  44.3300593  23.9438386  57.3065689  43.3347177  23.8211958
  56.9684201  43.2188242  22.9332493  58.1755458  42.9338342  23.8012964
  53.1652505  45.1882654  19.8108849  52.6017370  45.0972590  19.0425137
  53.0504900  44.3682558  20.2911342  57.7885472  44.4882029  29.7798164
  57.7774113  44.0934827  28.9078667  57.9506112  43.7548101  30.3731935
  50.7116937  46.6833845  22.6493070  51.5038229  46.3424670  22.2339369
  50.9513587  46.7928820  23.5695223  58.7452064  48.8553621  15.1223314
  58.0940044  49.4407702  14.7357328  59.5396427  49.3859816  15.1818351
  52.6707691  45.9442758  15.5210448  53.4438567  45.3971745  15.3823324
  53.0233090  46.8087008  15.7324910  54.5092734  47.2719141  28.7277348
  54.2182600  48.1764772  28.6124014  55.1449718  47.3135668  29.4421417
  55.4348940  44.6495989  25.3178707  56.0312513  44.4252012  24.6035670
  55.4923912  43.9080735  25.9204155  55.0073969  42.1035425  13.1528898
  55.2599489  41.5816946  12.3912361  54.0698528  41.9401570  13.2555582
  60.0517252  41.1071203  20.9603641  60.8380341  40.6890626  20.6094059
  60.3155956  42.0117295  21.1285290  60.2227329  46.5444053  15.6592298
  59.5873162  46.6178680  16.3713203  59.8924735  47.1337652  14.9811378
  65.4525679  41.0446436  21.8636620  66.1850851  40.4745653  22.0974449
  64.6965034  40.6568037  22.3043126  54.7270258  44.0063530  15.3553273
  54.6106516  43.3308434  16.0234358  54.8372517  43.5195904  14.5385426
  57.0701798  43.4673678  19.0599962  56.7060006  42.9404299  19.7712884
  57.9268914  43.0772147  18.8866448  62.9751099  34.7568010  26.3231229
  62.6434424  35.6263421  26.0992444  62.3796712  34.4404294  27.0025259
  56.7107285  38.4963577  14.0561311  56.8781688  39.3643814  14.4231782
  56.5204455  38.6590859  13.1322600  59.4682619  46.9580556  25.7227141
  59.1683342  47.8605595  25.6142949  59.1233678  46.6912739  26.5748294
  52.9195100  43.4094353  21.7563846  51.9945597  43.2770567  21.9641538
  53.1679513  44.1888572  22.2533788  62.8679762  39.4763096  23.4024579
  61.9596640  39.4078505  23.1083340  62.8167358  39.9535041  24.2306404
  56.6896506  40.9521235  15.0407978  56.5696132  41.3978286  15.8793458
  55.9949095  41.3006552  14.4821516  50.2803911  43.0527627  22.5907635
  50.4096292  43.3062105  23.5047047  49.6001362  43.6455335  22.2712290
  54.4503398  53.7224877  18.6898109  54.3727428  54.6732702  18.7686590
  53.8465042  53.3770749  19.3473035  56.9420628  40.8952742  31.3459476
  56.1653962  41.4546662  31.3362341  57.5811191  41.3809525  31.8674346
  64.7341409  37.6779535  25.1802453  64.0915789  37.9712068  24.5342247
  64.2296337  37.5632455  25.9855649  62.3881572  41.4242708  15.8688312
  63.2999429  41.6570095  15.6936009  61.8791220  42.0079752  15.3063390
  55.1967000  43.7038195  30.9077443  55.9381685  44.2423239  30.6312267
  54.4903986  44.3304484  31.0648995  60.6722340  45.8467336  29.5049604
  61.0805696  45.4049746  28.7604237  59.9499602  45.2719963  29.7583797
  57.0253410  40.7839943  26.8783161  57.8714605  41.2079356  27.0217810
  56.9652048  40.1273567  27.5721724  60.9951155  46.4068526  23.2601893
  60.3660017  46.5714241  22.5577961  60.6076817  46.8210136  24.0312857
  64.8740387  47.3422964  20.6146257  64.1891425  47.7221866  20.0643290
  64.9584236  47.9518291  21.3478205  60.1752856  38.4444311  28.5364335
  59.9313787  39.1986371  27.9998611  60.4512786  38.8229659  29.3711582
  62.1291318  44.9882923  27.2141601  62.3408214  45.6314683  26.5375982
  62.0821067  44.1545240  26.7463531  59.7317547  37.6000744  24.1178173
  58.8702026  37.8981997  24.4094910  59.7579982  37.8171143  23.1859205
  56.5479117  46.1442934  20.5251978  57.0117462  46.4230637  19.7356601
  56.2835915  45.2426379  20.3425069  53.4403198  45.6914416  23.4631742
  54.0104555  46.1201684  22.8249226  54.0311310  45.4097001  24.1615927
  55.4848003  42.2666087  17.3341544  56.1872046  42.7187131  17.8015470
  55.1528631  41.6249906  17.9621437  53.9328364  40.8577843  31.7092753
  53.3027025  41.5394124  31.9428150  53.8264452  40.7460925  30.7645891
  49.2273337  40.5249640  22.6358677  48.4372391  40.7807168  22.1598788
  49.7184584  41.3397977  22.7410718  63.2437146  47.8654879  25.3863958
  64.0654590  47.4635066  25.1046640  63.2399549  47.7623113  26.3380074
  51.1788082  40.8894219  19.5942154  50.3819245  41.0012913  20.1125649
  50.9513674  41.2280871  18.7283044  57.0093750  47.4138922  27.5424668
  57.0738182  47.8759329  28.3782840  56.3004674  46.7836287  27.6706978
  47.5111040  40.7780130  25.0673668  47.7619078  41.6627140  25.3331244
  48.0470588  40.5984731  24.2948760  56.7241767  49.0807029  17.4103649
  56.5887442  49.9258565  17.8388497  57.2651580  49.2826307  16.6469583
  53.2109107  35.1598609  34.0718004  52.8176053  34.6064808  34.7465648
  54.0275247  35.4709188  34.4624522  50.1771165  46.5982468  17.9831574
  50.6895685  47.3925718  18.1337139  50.8293878  45.9008758  17.9165175
  51.9866049  49.7148224  20.0654327  52.1632678  50.6366188  19.8775311
  52.7822883  49.4006643  20.4948707  56.1277068  36.5756488  31.6638261
  56.8686781  37.1763642  31.5842723  56.3594991  35.8334126  31.1056303
  51.2718406  41.7612856  29.9416490  51.1571921  40.8598113  30.2423589
  50.4162924  42.0076552  29.5901307  58.3510244  49.7030596  31.5403991
  57.9074098  48.9166975  31.2224895  59.0127457  49.8909746  30.8747882
  53.1097365  51.2326398  26.0664669  53.6604790  51.1043461  25.2941663
  52.2708841  51.5321287  25.7159562  60.4491482  49.9833396  29.5685392
  60.4309957  50.8042277  29.0765661  61.3711402  49.8587471  29.7935533
  56.9064536  47.4977525  30.4108900  57.4392873  46.7365814  30.1808208
  56.3778617  47.2051177  31.1533055  60.0734231  32.6037591  25.9402542
  59.7298500  33.4939233  25.8641653  60.4413194  32.4139249  25.0772127
  48.1420082  44.9271122  18.7591144  48.9795304  45.3368130  18.5424852
  48.3198349  43.9870564  18.7291338  60.0384514  42.5946202  14.4474977
  59.5231137  43.3650807  14.6863365  59.7661822  41.9211339  15.0708039
  57.6231625  37.4395903  19.5060216  56.7673221  37.0502754  19.3265854
  58.0358576  37.5187864  18.6460001  59.1530771  34.9742247  23.9051775
  58.6495567  34.9372382  23.0919581  59.4461378  35.8834989  23.9648432
  55.3973657  35.0580976  22.9117957  56.2626654  34.8623785  22.5523847
  55.4651166  34.8291328  23.8387314  65.0118788  45.3478557  16.3828151
  64.2348231  45.0089717  15.9383313  65.6910269  45.3531180  15.7083116
  59.8270817  40.4673295  16.2734759  59.5220952  40.7819444  17.1244902
  60.7801259  40.5454714  16.3162092  58.2717249  46.6263518  17.9227712
  57.7438610  45.8916277  17.6100950  57.7704751  47.4038194  17.6767681
  63.2510095  44.8212538  23.0394759  62.5933769  45.5111800  23.1274887
  64.0550494  45.2108970  23.3828745  53.0035976  37.2883184  20.2834324
  53.5779728  37.0658366  19.5507517  53.5906959  37.3571879  21.0362925
  62.0615553  43.1756911  21.0898701  62.5747435  43.8086903  21.5920410
  62.7116777  42.5758107  20.7242061  53.3305563  39.3187645  14.3030209
  52.4942876  39.6562332  14.6239484  53.1910333  39.1836625  13.3657346
  55.3058644  34.1624433  19.0109393  54.6523056  33.8473450  18.3866008
  55.2639118  33.5400174  19.7369216  56.4169849  44.4443728  10.9262686
  55.5096911  44.2132982  11.1253835  56.9140881  43.6481347  11.1136667
  59.3237928  53.1541235  13.8459372  58.6499626  53.4572932  14.4544330
  59.7103750  53.9570316  13.4964829  58.5396384  40.6506367  23.3357041
  57.6218946  40.8721314  23.1778729  58.9556528  40.7252677  22.4768748
  59.3231432  42.0497782  18.4659721  60.0703251  42.5619179  18.1566843
  59.5923022  41.7281835  19.3264115  57.5958082  44.5456323  15.4486676
  56.6869302  44.2615356  15.5459145  57.6253166  44.9655402  14.5889982
  62.8277350  48.1562913  19.2177843  62.3739677  47.3153822  19.2743034
  62.1971316  48.7924311  19.5552623  61.7710269  39.0854899  20.4478511
  61.0333026  38.5732285  20.7788753  62.0237043  38.6455280  19.6361788
  61.2710289  49.9939409  20.1527661  61.5633263  50.5544466  19.4340027
  61.7808909  50.2867970  20.9080820  61.8721897  31.8631151  21.0420280
  62.1780773  31.0028514  20.7546195  62.5974501  32.4548771  20.8419274
  48.1646253  42.2661837  19.4301878  47.9670652  41.6731198  18.7052944
  47.6092917  41.9614047  20.1477817  56.1442976  42.1584944  21.5496471
  56.1991586  41.2058780  21.4738948  55.3334178  42.3144383  22.0337769
  57.2934170  46.0865067  12.7874754  56.8553600  45.3700926  12.3280392
  58.0344611  46.3141181  12.2259846  54.0835336  40.7762003  19.3086850
  53.2703202  41.0756174  19.7152042  54.5794330  40.3817692  20.0261332
  56.2343914  50.7719760  21.2421115  56.1920093  50.9980607  20.3129647
  57.1506613  50.5383135  21.3906916  59.6809548  41.2403828  28.1401744
  60.0358936  41.4675301  28.9996209  60.3281679  41.5722205  27.5178999
  65.4107285  44.3622264  18.8451073  65.2725183  44.5523860  17.9172262
  65.0543504  45.1241647  19.3019124  53.5749411  38.3480359  24.9248085
  54.2148790  38.2069118  24.2271048  52.7426942  38.0614872  24.5486687
  65.4376664  46.4298791  23.8562344  65.8713171  46.3374080  24.7045398
  66.1508245  46.4056291  23.2182360  54.3509715  47.6482789  21.0383077
  55.1450313  47.1533109  20.8365652  53.6401407  47.1200652  20.6750783
  59.1704559  50.0300885  25.3895445  59.2241582  50.5991821  26.1573161
  58.3019341  50.2002770  25.0249482  50.6592478  41.7925871  17.1142830
  49.7290066  41.7310327  17.3312792  50.7549950  41.2701824  16.3179471
  50.5778027  38.3180684  19.7021072  50.8384845  39.2326017  19.5930232
  51.3995200  37.8505126  19.8517684  52.0502953  39.7318441  26.8719896
  52.7226006  39.5235803  26.2232545  51.2232739  39.5340527  26.4325128
  66.2992214  46.4722491  26.3895230  66.4928104  47.3768302  26.6354505
  66.1992832  46.0129910  27.2233815  57.9528525  36.3580382  28.8885557
  57.3056440  37.0570332  28.7950033  58.7229540  36.7916526  29.2561805
  61.3607323  46.6229234  31.9636110  61.2092829  46.3939786  31.0466194
  61.3512002  47.5799836  31.9767455  58.1292659  44.1961147  26.9482377
  59.0584719  44.3472306  26.7751344  57.7083689  44.2845168  26.0931023
  56.9280991  48.2211811  24.7180914  56.7892077  47.8530596  25.5906852
  56.1395587  48.7359451  24.5464872  57.5229143  53.3220908  16.0606451
  57.6980899  52.8508951  16.8752074  56.8361931  53.9486674  16.2887712
  58.4786206  47.5993414  22.1069752  58.1436039  47.5594184  23.0027402
  57.9790152  46.9338130  21.6340162  52.4530450  43.0061044  27.6322333
  52.3150248  42.2741283  28.2333872  53.3635373  42.9169944  27.3506521
  61.4145398  44.9449448  12.3806812  60.7974568  44.2196276  12.2839864
  60.9461886  45.7058809  12.0373886  55.0812751  42.7181003  27.1206013
  55.7912369  42.0774196  27.0792631  55.0382059  42.9693898  28.0432194
  63.0699529  49.6548357  30.0412592  63.0112075  48.9707577  29.3743175
  63.4719048  50.3967347  29.5893218  53.7941685  39.7046221  28.9401652
  53.2579042  39.2536960  29.5923249  53.2058393  39.8392130  28.1972117
  52.0890228  56.4710271  22.8346311  52.3286826  57.1028795  23.5125330
  51.2459425  56.1198311  23.1211670  53.2043944  39.1634873  11.5028116
  52.3273410  39.0423673  11.1390363  53.6801697  38.3720951  11.2507005
  63.0716937  47.6187941  28.2726572  62.1843715  47.2813862  28.3952971
  63.6415488  46.8870972  28.5095337  44.7246084  43.9512032  21.5969623
  45.4117124  43.6373762  21.0090639  44.5694212  44.8553397  21.3236875
  49.5280806  38.8402229  26.0254647  49.4438995  38.2327898  25.2905057
  48.7063512  39.3311247  26.0264143  56.6018090  52.2789393  25.2387815
  56.5288261  53.0844364  25.7507120  56.1595483  52.4781359  24.4135836
  56.3907870  51.5161163  18.7490637  55.6075392  52.0582843  18.8428861
  57.0900615  52.0335143  19.1484878  59.7004520  37.3255792  21.3924842
  60.1973219  36.5725755  21.0725912  58.9291501  37.3620109  20.8268051
  67.5534277  43.0296158  23.0343133  67.5424153  43.9120873  22.6637067
  66.6851657  42.6767709  22.8397671  59.0616774  52.1776227  27.3945974
  59.7744746  52.8123692  27.3221875  58.5706802  52.2740093  26.5785976
  60.7834300  46.0827480  18.9663265  59.8490579  46.2028942  18.7967970
  60.9610969  45.1799946  18.7023275  56.2839488  39.4673175  21.1196527
  55.9137276  38.9144216  21.8077432  56.7798581  38.8631309  20.5671527
  64.1706852  41.9244799  19.5013300  64.6367304  42.7572791  19.4273602
  64.6214352  41.4589781  20.2058558  54.1128687  49.9270670  28.2151545
  54.8138147  50.5607153  28.3680939  53.6423802  50.2685402  27.4547184
  62.2383083  48.2688620  16.4999452  62.5142927  48.1545215  17.4093326
  61.3687582  47.8706105  16.4611625  62.1423515  34.2925386  23.5404201
  61.2286594  34.5229613  23.7086408  62.5716616  34.3763830  24.3918233
  61.9129973  42.4815278  26.0404095  61.2601423  42.7291185  25.3856548
  62.2910353  41.6679416  25.7066572  58.8737147  52.5174971  20.1432265
  59.0559541  51.6996627  20.6060017  59.6970133  52.7342663  19.7057155
  59.2079312  51.4443156  17.4047314  59.7367079  50.9335611  16.7917476
  59.4707532  51.1285686  18.2692847  57.9617546  43.2235089  32.5270132
  57.2858183  43.1229218  33.1972507  58.7845180  43.0674303  32.9906129
  49.7096405  49.4607025  25.1482647  50.2949842  48.7150713  25.2810551
  49.5121244  49.7710982  26.0319311  52.5635060  52.4958273  20.1645090
  51.8945436  52.9804401  19.6809130  52.4247930  52.7427493  21.0788468
  44.3014060  42.0312626  23.8687090  44.3398159  41.4976216  24.6624208
  43.7954353  41.5047831  23.2498068  56.7040329  54.5302016  26.7627748
  57.2558637  54.6933638  27.5276833  57.0446522  55.1206454  26.0907773
  51.6804822  36.8777166  27.3649633  51.7446149  37.7391997  26.9527030
  51.6171942  36.2651168  26.6321991  61.5551203  49.3563274  32.6176402
  62.0991107  49.9693232  32.1231357  60.9738048  49.9142852  33.1343415
  47.9322637  40.7576728  16.9441022  48.2276079  39.8487406  16.8908075
  47.0310673  40.7364467  16.6222024  59.8408716  52.4783992  23.7491430
  59.7159856  51.6773732  23.2402376  60.4987807  52.9730185  23.2605400
  51.4616884  38.8332724  22.9268570  50.7403470  39.4468692  22.7876044
  52.2510140  39.3690489  22.8485216  61.9043625  50.2793012  25.3770980
  60.9573960  50.1598363  25.3049307  62.2526398  49.3915510  25.4597242
  54.2643198  36.1687151  29.2009222  54.7877600  36.4149447  29.9635531
  54.0455531  37.0007186  28.7812359  49.6610479  38.4390826  17.0680347
  49.3323185  37.5588204  16.8855453  50.0149850  38.3838494  17.9556736
  58.9090058  50.0745728  21.5775332  58.7615020  49.1462436  21.7582902
  59.7343551  50.0965819  21.0932408  52.7752302  38.7263795  17.4355825
  53.1148375  39.2549717  16.7134433  53.2224423  39.0644201  18.2114391
  62.5124180  50.8974287  22.6640205  63.4370727  50.6917148  22.5264656
  62.3439483  50.6490688  23.5729547  55.4695743  37.1100846  26.8858893
  55.1292563  36.3108659  27.2879572  54.7634749  37.4102557  26.3135726
  56.1212215  34.1950158  25.3386216  56.9438284  33.7210637  25.2165106
  56.3650278  34.9740642  25.8384902  54.7620449  37.2238417  15.6349117
  55.4828812  37.6019670  15.1312834  54.1385753  37.9427294  15.7384095
  58.9051572  37.9283566  16.5707450  59.1215187  38.8108204  16.2696278
  58.4245639  37.5369779  15.8413092  53.6450794  40.8869279  23.1478194
  53.4995374  41.2009582  24.0402476  53.1675997  41.5054179  22.5949093
  55.5047176  37.8771827  23.1959084  55.4908745  36.9812920  22.8591382
  56.2219605  37.8842491  23.8297370  57.3573307  38.3109167  25.2412211
  57.0991085  39.2326238  25.2396542  56.8258348  37.9139602  25.9312675
  62.3019496  51.4159954  18.0202297  62.4756373  50.8506377  17.2676149
  62.7948387  52.2160849  17.8381787  48.1196456  43.4274623  26.0865855
  47.5749924  44.2034431  26.2186130  48.9975806  43.7745428  25.9284977
  54.9084072  36.7586207  18.4646654  55.0299984  35.8302854  18.6637541
  54.6186115  36.7724893  17.5524969  57.7775263  34.4441118  21.6013374
  57.7996960  34.5080451  20.6465353  58.1943322  33.6045626  21.7953880
  68.1558887  44.1796377  19.6392596  68.5990033  43.4303703  19.2411720
  67.2785397  44.1706514  19.2566328  63.2894668  50.7326719  15.1199195
  63.9845573  51.3533412  15.3386510  63.6317819  49.8822070  15.3951573
  65.1886092  48.1826424  16.6486526  65.7137416  48.5213697  15.9235846
  65.1008444  47.2473440  16.4649660  56.8506140  52.0960498  28.7776402
  57.1593267  51.8509645  29.6499102  57.6481622  52.3007136  28.2895273
  56.8726752  54.2498408  21.0081779  56.4331743  53.7574786  21.7014636
  57.6234869  53.7071375  20.7673854  49.3519091  50.4409948  21.0106407
  50.1777111  50.1413720  20.6305050  49.0013143  49.6717571  21.4596196
  54.3200624  49.7936417  23.0804081  53.6980634  49.1307122  22.7806308
  54.9905491  49.8197549  22.3977728  47.5527696  48.3596275  21.9695341
  46.7159605  47.9318449  21.7879342  47.5251342  48.5528718  22.9066132
  54.3925152  38.2718205  32.6736587  54.4413307  39.1480328  32.2914356
  54.9347666  37.7295598  32.1008230  64.8779998  48.8159328  31.9537724
  64.0875541  48.7983467  31.4142223  64.6413352  49.3547622  32.7086760
  64.9977873  45.6651794  29.2670452  65.0475878  45.5001802  30.2085975
  64.8891796  44.7979053  28.8768333  53.8814131  48.3440340  16.5562541
  54.0302252  49.0275804  15.9029214  54.6880575  48.3245430  17.0711997
  62.2881635  41.6482722  30.5829759  63.1891498  41.5089187  30.2913757
  62.3629610  41.8137177  31.5227936  56.6224440  39.0249577  29.4282945
  55.7527750  39.3183143  29.1565534  56.8583921  39.6090022  30.1490209
  66.4996069  48.0848736  29.5112474  66.2080878  48.4478716  30.3475935
  65.8868201  47.3715744  29.3325806  67.6991752  45.6501616  22.0315044
  68.5338643  46.0891420  22.1952604  67.8350881  45.1740269  21.2123290
  64.7483258  43.2081351  27.9792532  65.2237379  43.4008997  27.1711383
  63.8248823  43.2640536  27.7335915  51.6366764  44.3705518  17.5623610
  51.3912806  43.4667848  17.7603820  51.8062679  44.3722668  16.6203088
  59.3263474  35.2429194  26.9448366  59.8445418  35.9790221  26.6194854
  58.9718607  35.5493187  27.7795125  50.9062412  40.1033875  15.0609771
  50.2131657  40.1778230  14.4049807  50.6614164  39.3394219  15.5831288
  59.5776068  31.6629477  22.4649262  59.8577822  30.9952666  23.0909689
  60.3626675  31.8558572  21.9523926  57.3809537  50.8388470  14.0274288
  56.8083504  51.4578658  13.5744760  57.9542331  51.3887832  14.5614210
  63.4484927  40.0847111  26.2120837  64.4002350  40.1845208  26.2333061
  63.2788377  39.2925379  26.7218922  61.4699306  37.1702694  26.3980238
  60.8749238  37.4507707  25.7026727  61.1849003  37.6596595  27.1696979
  60.6006797  51.1225621  15.1582871  61.5337470  51.0571182  15.3615746
  60.5130009  51.9581887  14.6997403  65.9273005  43.3053230  25.3263137
  65.8949325  42.3669231  25.5122821  66.5373628  43.3837267  24.5928962
  57.7656335  42.1749283  11.3690341  58.7115440  42.0455491  11.4378759
  57.3870580  41.4363945  11.8459769  66.0767493  40.0964274  25.3721420
  65.5606542  39.3122730  25.1851349  66.9607442  39.7682990  25.5367940
  63.7378220  33.8405289  21.3317233  63.5403041  33.5320377  22.2160565
  64.3477925  34.5666928  21.4615163  69.8264851  42.5077100  25.0643625
  69.0998015  42.3733065  24.4560117  69.4112138  42.8153928  25.8700343
  57.6495028  46.2267029  32.8290998  58.5698037  46.4045628  33.0231044
  57.6144611  45.2823075  32.6770697  55.9499253  40.0999260  11.3045226
  55.0430708  39.8032372  11.3807940  56.2275234  39.8029078  10.4379512
  46.8677193  41.4205623  21.7544273  46.5479977  40.5670931  21.4618647
  46.3210621  41.6354201  22.5102240  50.6457100  44.1368064  25.4713779
  50.8643110  45.0685172  25.4901813  51.0582874  43.7776038  26.2568583
  57.5661318  34.6436149  17.4589468  56.7562047  34.2983234  17.8344714
  58.2545735  34.3343693  18.0477079  59.4951867  33.7214196  19.0813764
  60.0482905  34.1409650  19.7403787  59.7321953  32.7949944  19.1236720
  55.5184966  39.7101270  34.8616528  55.4181693  40.6595627  34.7928619
  55.3006508  39.3819509  33.9892598  54.7198037  36.9586195  11.4457205
  55.5817201  37.2841093  11.7053023  54.9048381  36.1717691  10.9330271
  46.7365453  45.0408535  23.7237394  46.0428924  44.6262487  23.2107349
  47.4838444  45.0829071  23.1270813  62.8730674  35.8314721  18.5892428
  62.2929343  36.4899525  18.2070481  62.6066606  35.0092066  18.1779846
  61.3234240  35.2319779  20.7913749  61.8234018  35.3436314  19.9828068
  61.9669848  34.9280832  21.4314557  55.3816236  43.1398409  33.6781590
  54.8983318  43.9398769  33.8845479  55.4677175  43.1506354  32.7249034
  48.6502195  44.9726788  21.6003409  48.6272884  45.0714476  20.6485292
  48.9602832  45.8191939  21.9220575  51.3089573  47.0302943  25.7150023
  52.2632827  46.9986886  25.6479955  51.1102097  46.5693567  26.5300249
  51.8988955  45.6004059  28.2820821  52.7181844  46.0948138  28.3055658
  52.1725763  44.6836028  28.2538389  61.6555552  37.9914812  17.6448777
  60.7681407  38.2764462  17.4268971  62.0709541  37.8308575  16.7976054
  65.0070088  38.0161333  21.3603116  65.7830478  38.5057785  21.6327733
  64.2818222  38.4419387  21.8174985  67.4442646  38.7288952  22.4177057
  68.0387137  38.4884688  21.7070365  67.5169230  38.0096082  23.0450593
  49.6639802  52.5722563  22.7320221  49.5294270  51.8122964  22.1658219
  49.2471864  53.2963463  22.2649010  60.7998765  47.7559486  11.7396797
  61.5034615  47.9609489  12.3554452  60.0761414  48.3236248  12.0045880
  61.6296575  43.5069348  17.8599067  61.5731777  43.9637899  17.0206699
  62.1824918  42.7460032  17.6821910  65.4401381  39.2959080  18.6849186
  65.1838316  38.8955715  19.5157394  64.8154249  40.0102873  18.5599325
  69.7513719  42.0355153  21.1920478  69.1913277  42.1048342  21.9652040
  69.1457223  41.8596137  20.4719974  52.8208928  53.4691880  22.9438664
  52.7041312  54.4137312  22.8417354  52.0001374  53.1665441  23.3324463
  62.7085463  48.1942016  13.7895257  63.5431066  47.7623214  13.6072732
  62.5469805  48.0224029  14.7172151  62.3631355  44.6974129  15.1551596
  62.3080158  44.5318400  14.2140040  61.7377410  45.4050162  15.3113786
  59.6777262  47.0023041  34.4805159  60.5468422  47.1763693  34.1191794
  59.1984013  47.8217458  34.3580888  55.6727480  34.1982238  14.7336914
  55.6606150  35.1424078  14.8905185  56.5650902  34.0152383  14.4396376
  53.8463442  54.1220142  26.1594592  54.7490689  54.1543752  26.4761087
  53.6200812  53.1920593  26.1740928  55.6017044  52.8751128  22.8204671
  54.6512675  52.8752990  22.7069043  55.9049530  52.1283863  22.3040706
  59.4879600  30.7925015  18.9882851  58.7211995  30.2383501  19.1339534
  59.8990305  30.8646883  19.8497003  68.1459444  58.6639095  23.8211958
  67.8077955  58.5480159  22.9332493  69.0149212  58.2630260  23.8012964
  64.0046260  60.5174571  19.8108849  63.4411125  60.4264508  19.0425137
  63.8898655  59.6974476  20.2911342  68.6279227  59.8173947  29.7798164
  68.6167868  59.4226745  28.9078667  68.7899866  59.0840019  30.3731935
  61.5510692  62.0125763  22.6493070  62.3431983  61.6716587  22.2339369
  61.7907342  62.1220738  23.5695223  65.3486488  62.6011058  28.7277348
  65.0576354  63.5056689  28.6124014  65.9843472  62.6427586  29.4421417
  66.2742695  59.9787907  25.3178707  66.8706267  59.7543929  24.6035670
  66.3317666  59.2372652  25.9204155  67.9095553  58.7965595  19.0599962
  67.5453760  58.2696216  19.7712884  68.7662669  58.4064064  18.8866448
  63.7588855  58.7386271  21.7563846  62.8339351  58.6062485  21.9641538
  64.0073268  59.5180490  22.2533788  61.1197666  58.3819544  22.5907635
  61.2490047  58.6354023  23.5047047  60.4395117  58.9747252  22.2712290
  67.7814383  56.2244660  31.3459476  67.0047717  56.7838580  31.3362341
  68.4204946  56.7101443  31.8674346  66.0360755  59.0330113  30.9077443
  66.7775439  59.5715157  30.6312267  65.3297740  59.6596402  31.0648995
  67.8647165  56.1131860  26.8783161  68.7108360  56.5371274  27.0217810
  67.8045802  55.4565485  27.5721724  71.0146610  53.7736229  28.5364335
  70.7707542  54.5278289  27.9998611  71.2906541  54.1521576  29.3711582
  70.5711302  52.9292662  24.1178173  69.7095781  53.2273915  24.4094910
  70.5973736  53.1463060  23.1859205  64.2796952  61.0206334  23.4631742
  64.8498309  61.4493602  22.8249226  64.8705064  60.7388918  24.1615927
  64.7722119  56.1869761  31.7092753  64.1420779  56.8686042  31.9428150
  64.6658207  56.0752843  30.7645891  60.0667091  55.8541557  22.6358677
  59.2766145  56.1099086  22.1598788  60.5578339  56.6689895  22.7410718
  62.0181837  56.2186136  19.5942154  61.2213000  56.3304831  20.1125649
  61.7907429  56.5572789  18.7283044  67.8487504  62.7430840  27.5424668
  67.9131937  63.2051247  28.3782840  67.1398428  62.1128205  27.6706978
  58.3504794  56.1072048  25.0673668  58.6012833  56.9919058  25.3331244
  58.8864343  55.9276649  24.2948760  64.0502861  50.4890527  34.0718004
  63.6569807  49.9356726  34.7465648  64.8669002  50.8001105  34.4624522
  66.9670822  51.9048406  31.6638261  67.7080536  52.5055559  31.5842723
  67.1988745  51.1626044  31.1056303  62.1112160  57.0904773  29.9416490
  61.9965676  56.1890031  30.2423589  61.2556678  57.3368470  29.5901307
  67.7458290  62.8269443  30.4108900  68.2786627  62.0657731  30.1808208
  67.2172372  62.5343095  31.1533055  70.9127985  47.9329509  25.9402542
  70.5692255  48.8231151  25.8641653  71.2806948  47.7431167  25.0772127
  58.9813836  60.2563039  18.7591144  59.8189058  60.6660048  18.5424852
  59.1592104  59.3162482  18.7291338  68.4625379  52.7687821  19.5060216
  67.6066975  52.3794671  19.3265854  68.8752331  52.8479782  18.6460001
  69.9924526  50.3034164  23.9051775  69.4889321  50.2664299  23.0919581
  70.2855133  51.2126907  23.9648432  66.2367412  50.3872894  22.9117957
  67.1020408  50.1915703  22.5523847  66.3044921  50.1583246  23.8387314
  63.8429731  52.6175102  20.2834324  64.4173483  52.3950283  19.5507517
  64.4300713  52.6863796  21.0362925  66.1452398  49.4916351  19.0109393
  65.4916811  49.1765368  18.3866008  66.1032873  48.8692091  19.7369216
  69.3790139  55.9798284  23.3357041  68.4612700  56.2013231  23.1778729
  69.7950282  56.0544595  22.4768748  59.0040007  57.5953755  19.4301878
  58.8064407  57.0023116  18.7052944  58.4486671  57.2905965  20.1477817
  66.9836731  57.4876861  21.5496471  67.0385341  56.5350698  21.4738948
  66.1727933  57.6436300  22.0337769  64.9229091  56.1053921  19.3086850
  64.1096956  56.4048092  19.7152042  65.4188085  55.7109610  20.0261332
  70.5203302  56.5695746  28.1401744  70.8752690  56.7967219  28.9996209
  71.1675434  56.9014122  27.5178999  64.4143165  53.6772277  24.9248085
  65.0542545  53.5361036  24.2271048  63.5820696  53.3906790  24.5486687
  65.1903469  62.9774707  21.0383077  65.9844068  62.4825027  20.8365652
  64.4795162  62.4492570  20.6750783  61.4986233  57.1217789  17.1142830
  60.5683821  57.0602244  17.3312792  61.5943705  56.5993741  16.3179471
  61.4171782  53.6472602  19.7021072  61.6778599  54.5617935  19.5930232
  62.2388954  53.1797044  19.8517684  62.8896707  55.0610359  26.8719896
  63.5619761  54.8527721  26.2232545  62.0626494  54.8632445  26.4325128
  68.7922279  51.6872300  28.8885557  68.1450194  52.3862249  28.7950033
  69.5623295  52.1208444  29.2561805  68.9686414  59.5253065  26.9482377
  69.8978474  59.6764224  26.7751344  68.5477444  59.6137085  26.0931023
  63.2924204  58.3352962  27.6322333  63.1544002  57.6033201  28.2333872
  64.2029128  58.2461862  27.3506521  65.9206505  58.0472921  27.1206013
  66.6306124  57.4066113  27.0792631  65.8775813  58.2985816  28.0432194
  64.6335439  55.0338139  28.9401652  64.0972796  54.5828877  29.5923249
  64.0452148  55.1684048  28.1972117  55.5639838  59.2803950  21.5969623
  56.2510878  58.9665680  21.0090639  55.4087967  60.1845315  21.3236875
  60.3674560  54.1694147  26.0254647  60.2832749  53.5619816  25.2905057
  59.5457267  54.6603165  26.0264143  70.5398274  52.6547710  21.3924842
  71.0366974  51.9017672  21.0725912  69.7685256  52.6912027  20.8268051
  67.1233243  54.7965093  21.1196527  66.7531030  54.2436133  21.8077432
  67.6192335  54.1923227  20.5671527  68.8011301  58.5527007  32.5270132
  68.1251938  58.4521136  33.1972507  69.6238934  58.3966220  32.9906129
  60.5490160  64.7898943  25.1482647  61.1343596  64.0442631  25.2810551
  60.3514998  65.1002900  26.0319311  55.1407814  57.3604543  23.8687090
  55.1791914  56.8268134  24.6624208  54.6348107  56.8339749  23.2498068
  62.5198577  52.2069084  27.3649633  62.5839903  53.0683915  26.9527030
  62.4565697  51.5943086  26.6321991  61.9950849  54.2792216  31.0122667
  62.6222888  53.8969294  31.6260191  61.1378768  54.0606418  31.3778359
  58.7716392  56.0868646  16.9441022  59.0669833  55.1779324  16.8908075
  57.8704428  56.0656385  16.6222024  62.3010639  54.1624642  22.9268570
  61.5797225  54.7760610  22.7876044  63.0903895  54.6982407  22.8485216
  65.1036952  51.4979069  29.2009222  65.6271354  51.7441365  29.9635531
  64.8849286  52.3299103  28.7812359  60.5004234  53.7682743  17.0680347
  60.1716940  52.8880122  16.8855453  60.8543604  53.7130412  17.9556736
  63.6146057  54.0555713  17.4355825  63.9542129  54.5841634  16.7134433
  64.0618177  54.3936119  18.2114391  66.3089497  52.4392764  26.8858893
  65.9686318  51.6400577  27.2879572  65.6028504  52.7394475  26.3135726
  66.9605969  49.5242076  25.3386216  67.7832039  49.0502554  25.2165106
  67.2044033  50.3032560  25.8384902  65.6014204  52.5530335  15.6349117
  66.3222566  52.9311587  15.1312834  64.9779508  53.2719211  15.7384095
  64.4844548  56.2161197  23.1478194  64.3389129  56.5301500  24.0402476
  64.0069752  56.8346097  22.5949093  66.3440931  53.2063745  23.1959084
  66.3302500  52.3104838  22.8591382  67.0613359  53.2134409  23.8297370
  68.1967062  53.6401085  25.2412211  67.9384839  54.5618156  25.2396542
  67.6652102  53.2431520  25.9312675  58.9590210  58.7566541  26.0865855
  58.4143678  59.5326349  26.2186130  59.8369560  59.1037346  25.9284977
  65.7477827  52.0878125  18.4646654  65.8693738  51.1594771  18.6637541
  65.4579869  52.1016811  17.5524969  68.6169017  49.7733035  21.6013374
  68.6390714  49.8372369  20.6465353  69.0337076  48.9337544  21.7953880
  59.7456232  57.8836437  28.9796012  59.0037968  58.0319073  29.5660643
  59.4248976  58.1444703  28.1162762  60.1912846  65.7701866  21.0106407
  61.0170866  65.4705638  20.6305050  59.8406898  65.0009489  21.4596196
  58.3921451  63.6888193  21.9695341  57.5553359  63.2610367  21.7879342
  58.3645096  63.8820636  22.9066132  65.2318906  53.6010122  32.6736587
  65.2807062  54.4772245  32.2914356  65.7741421  53.0587515  32.1008230
  67.4618195  54.3541495  29.4282945  66.5921504  54.6475061  29.1565534
  67.6977675  54.9381940  30.1490209  70.1657229  50.5721112  26.9448366
  70.6839173  51.3082139  26.6194854  69.8112361  50.8785105  27.7795125
  61.7456166  55.4325793  15.0609771  61.0525411  55.5070148  14.4049807
  61.5007918  54.6686137  15.5831288  70.4169823  46.9921394  22.4649262
  70.6971577  46.3244583  23.0909689  71.2020430  47.1850490  21.9523926
  68.4888782  61.5558947  32.8290998  69.4091792  61.7337546  33.0231044
  68.4538365  60.6114992  32.6770697  57.7070947  56.7497541  21.7544273
  57.3873732  55.8962849  21.4618647  57.1604376  56.9646119  22.5102240
  61.4850855  59.4659982  25.4713779  61.7036865  60.3977090  25.4901813
  61.8976629  59.1067956  26.2568583  68.4055073  49.9728067  17.4589468
  67.5955801  49.6275152  17.8344714  69.0939490  49.6635611  18.0477079
  70.3345621  49.0506114  19.0813764  70.8876660  49.4701567  19.7403787
  70.5715707  48.1241862  19.1236720  66.3578720  55.0393187  34.8616528
  66.2575447  55.9887544  34.7928619  66.1400262  54.7111426  33.9892598
  57.5759207  60.3700452  23.7237394  56.8822679  59.9554405  23.2107349
  58.3232198  60.4120989  23.1270813  66.2209990  58.4690326  33.6781590
  65.7377072  59.2690686  33.8845479  66.3070929  58.4798271  32.7249034
  59.4895950  60.3018706  21.6003409  59.4666638  60.4006393  20.6485292
  59.7996586  61.1483857  21.9220575  62.1483328  62.3594861  25.7150023
  63.1026581  62.3278803  25.6479955  61.9495851  61.8985485  26.5300249
  62.7382710  60.9295977  28.2820821  63.5575599  61.4240056  28.3055658
  63.0119518  60.0127945  28.2538389  60.5033557  67.9014481  22.7320221
  60.3688025  67.1414881  22.1658219  60.0865619  68.6255380  22.2649010
  57.9917624  55.2634111  28.9813018  58.6376488  54.7533065  29.4700243
  57.7834775  56.0002793  29.5556443  66.5121235  49.5274156  14.7336914
  66.4999904  50.4715995  14.8905185  67.4044657  49.3444301  14.4396376
  70.3273354  46.1216932  18.9882851  69.5605750  45.5675419  19.1339534
  70.7384059  46.1938801  19.8497003  62.3315115  52.4101728  33.0788032
  63.1946577  52.0538533  33.2891357  61.7580526  52.0715623  33.7663437
  35.0252821   0.8780304  13.4873055  35.5771129   1.0411925  14.2522140
  35.3659015   1.4684741  12.8153079  35.1718633  -1.5561215  15.5021709
  35.4805759  -1.8012068  16.3744409  35.9694115  -1.3514576  15.0140579
  49.6582230   5.0589954  10.6095740  50.2960640   4.9396701   9.9059080
  49.5403073   6.0070798  10.6683692  46.4671936   5.0117382  10.5457265
  46.1290448   4.8958447   9.6577800  47.3361704   4.6108547  10.5258271
  46.9491719   6.1652234  16.5043470  46.9380360   5.7705032  15.6323974
  47.1112359   5.4318306  17.0977242  39.8723184   8.3604050   9.3738376
  40.6644476   8.0194875   8.9584675  40.1119834   8.4699025  10.2940530
  43.6698980   8.9489346  15.4522654  43.3788846   9.8534976  15.3369321
  44.3055965   8.9905873  16.1666724  44.5955187   6.3266194  12.0424014
  45.1918759   6.1022216  11.3280977  44.6530159   5.5850940  12.6449462
  48.6288865   8.6350761  12.4472448  48.3289588   9.5375800  12.3388255
  48.2839925   8.3682944  13.2993601  42.0801347   5.0864558   8.4809152
  41.1551843   4.9540772   8.6886844  42.3285760   5.8658777   8.9779095
  39.4410158   4.7297831   9.3152941  39.5702539   4.9832310  10.2292353
  38.7607609   5.3225539   8.9957597  43.6109645  15.3995081   5.4143416
  43.5333675  16.3502907   5.4931896  43.0071289  15.0540954   6.0718342
  46.1026875   2.5722947  18.0704783  45.3260209   3.1316867  18.0607647
  46.7417438   3.0579730  18.5919653  44.3573247   5.3808400  17.6322750
  45.0987932   5.9193444  17.3557573  43.6510233   6.0074689  17.7894301
  49.8328587   7.5237541  16.2294911  50.2411943   7.0819951  15.4849543
  49.1105848   6.9490168  16.4829104  50.1557402   8.0838731   9.9847200
  49.5266264   8.2484445   9.2823268  49.7683064   8.4980341  10.7558164
  51.2897565   6.6653128  13.9386907  51.5014460   7.3084888  13.2621288
  51.2427313   5.8315445  13.4708837  45.7085363   7.8213139   7.2497285
  46.1723709   8.1000842   6.4601908  45.4442162   6.9196584   7.0670376
  42.6009444   7.3684621  10.1877048  43.1710802   7.7971889   9.5494533
  43.1917556   7.0867206  10.8861234  43.0934611   2.5348048  18.4338060
  42.4633272   3.2164329  18.6673456  42.9870699   2.4231130  17.4891198
  52.4043393   9.5425084  12.1109265  53.2260837   9.1405271  11.8291946
  52.4005796   9.4393318  13.0625380  46.1699996   9.0909127  14.2669975
  46.2344429   9.5529534  15.1028147  45.4610920   8.4606492  14.3952285
  45.8848014  10.7577234   4.1348955  45.7493689  11.6028770   4.5633803
  46.4257827  10.9596512   3.3714889  41.1472296  11.3918429   6.7899634
  41.3238925  12.3136393   6.6020618  41.9429130  11.0776848   7.2194013
  40.4324653   3.4383061  16.6661797  40.3178168   2.5368318  16.9668896
  39.5769170   3.6846757  16.3146613  47.5116490  11.3800801  18.2649297
  47.0680345  10.5937179  17.9470202  48.1733704  11.5679951  17.5993188
  42.2703612  12.9096602  12.7909976  42.8211037  12.7813666  12.0186970
  41.4315088  13.2091492  12.4404869  49.6097729  11.6603601  16.2930699
  49.5916204  12.4812482  15.8010968  50.5317649  11.5357676  16.5180840
  46.0670783   9.1747730  17.1354207  46.5999119   8.4136018  16.9053515
  45.5384864   8.8821382  17.8778362  47.4323495   8.3033723   4.6473019
  46.9044857   7.5686482   4.3346257  46.9310998   9.0808399   4.4012987
  52.4116341   6.4982743   9.7640065  51.7540016   7.1882005   9.8520194
  53.2156741   6.8879175  10.1074052  48.4844174  14.8311440   0.5704678
  47.8105873  15.1343137   1.1789636  48.8709996  15.6340521   0.2210135
  50.4316536  11.6709614   6.8772968  50.7239510  12.2314671   6.1585334
  50.9415156  11.9638175   7.6326127  45.3049223   3.8355149   8.2741778
  45.3597833   2.8828985   8.1984254  44.4940425   3.9914588   8.7583076
  45.3950161  12.4489965   7.9666421  45.3526340  12.6750812   7.0374953
  46.3112860  12.2153340   8.1152222  48.8415795   2.9174033  14.8647050
  49.1965182   3.1445506  15.7241516  49.4887926   3.2492410  14.2424306
  54.5982911   8.1068996  10.5807651  55.0319418   8.0144285  11.4290705
  55.3114492   8.0826496   9.9427667  43.5115962   9.3252994   7.7628384
  44.3056560   8.8303314   7.5610959  42.8007654   8.7970857   7.3996089
  48.3310806  11.7071090  12.1140752  48.3847828  12.2762026  12.8818467
  47.4625587  11.8772975  11.7494789  41.2109199   1.4088646  13.5965203
  41.8832253   1.2006008  12.9477852  40.3838986   1.2110732  13.1570435
  55.4598461   8.1492696  13.1140536  55.6534351   9.0538507  13.3599811
  55.3599079   7.6900115  13.9479121  50.5213569   8.2999439  18.6881417
  50.3699076   8.0709991  17.7711501  50.5118249   9.2570040  18.7012762
  47.2898906   5.8731352  13.6727683  48.2190966   6.0242511  13.4996651
  46.8689936   5.9615373  12.8176330  46.0887238   9.8982016  11.4426221
  45.9498323   9.5300801  12.3152159  45.3001834  10.4129656  11.2710179
  46.6835390  14.9991113   2.7851758  46.8587145  14.5279156   3.5997380
  45.9968178  15.6256879   3.0133018  47.6392453   9.2763619   8.8315059
  47.3042285   9.2364389   9.7272709  47.1396398   8.6108335   8.3585469
  41.6136697   4.6831249  14.3567640  41.4756495   3.9511488  14.9579179
  42.5241620   4.5940149  14.0751828  44.2418997   4.3951208  13.8451320
  44.9518616   3.7544400  13.8037938  44.1988306   4.6464103  14.7677500
  52.2305776  11.3318562  16.7657899  52.1718322  10.6477782  16.0988482
  52.6325294  12.0737552  16.3138525  42.9547931   1.3816426  15.6646959
  42.4185288   0.9307165  16.3168555  42.3664640   1.5162335  14.9217423
  41.2496475  18.1480475   9.5591618  41.4893073  18.7799000  10.2370636
  40.4065671  17.7968515   9.8456977  52.2323183   9.2958146  14.9971878
  51.3449962   8.9584067  15.1198277  52.8021734   8.5641177  15.2340644
  38.6887053   0.5172434  12.7499954  38.6045241  -0.0901897  12.0150363
  37.8669759   1.0081452  12.7509450  45.7624337  13.9559598  11.9633122
  45.6894508  14.7614569  12.4752426  45.3201730  14.1551564  11.1381143
  45.5514116  13.1931368   5.4735943  44.7681638  13.7353048   5.5674168
  46.2506862  13.7105348   5.8730184  48.2223020  13.8546432  14.1191280
  48.9350992  14.4893897  14.0467182  47.7313049  13.9510298  13.3031282
  43.2734934  11.6040875  14.9396851  43.9744393  12.2377358  15.0926245
  42.8030049  11.9455607  14.1792490  48.0343394  14.1945176   6.8677572
  48.2165788  13.3766832   7.3305324  48.8576380  14.4112868   6.4302462
  48.3685559  13.1213361   4.1292620  48.8973326  12.6105816   3.5162782
  48.6313779  12.8055891   4.9938153  47.1223793   4.9005294  19.2515439
  46.4464430   4.7999423  19.9217814  47.9451427   4.7444508  19.7151436
  38.8702652  11.1377230  11.8727954  39.4556089  10.3920918  12.0055858
  38.6727490  11.4481187  12.7564618  41.7241307  14.1728478   6.8890396
  41.0551682  14.6574605   6.4054436  41.5854177  14.4197698   7.8033775
  45.8646576  16.2072221  13.4873055  46.4164884  16.3703843  14.2522140
  46.2052769  16.7976659  12.8153079  40.3163341   0.6270504  17.7367974
  40.9435380   0.2447581  18.3505498  39.4591260   0.4084706  18.1023666
  50.7157450  11.0333479  19.3421709  51.2597354  11.6463437  18.8476664
  50.1344295  11.5913057  19.8588722  49.0014963  14.1554197  10.4736737
  48.8766102  13.3543937   9.9647682  49.6594054  14.6500390   9.9850707
  51.0649871  11.9563217  12.1016287  50.1180207  11.8368568  12.0294614
  51.4132644  11.0685715  12.1842548  48.0696305  11.7515933   8.3020639
  47.9221267  10.8232641   8.4828209  48.8949798  11.7736024   7.8177714
  51.6730426  12.5744492   9.3885512  52.5976974  12.3687353   9.2509963
  51.5045730  12.3260893  10.2974853  42.8057040   2.5639484   9.8723501
  42.6601621   2.8779787  10.7647782  42.3282244   3.1824384   9.3194400
  37.2802702   5.1044828  12.8111162  36.7356171   5.8804636  12.9431436
  38.1582052   5.4515633  12.6530283  38.0668724   4.2314725  15.7041319
  37.3250460   4.3797360  16.2905949  37.7461469   4.4922990  14.8408068
  46.0112387  13.7730703  15.5021709  46.3199513  13.5279850  16.3744409
  46.8087869  13.9777341  15.0140579  46.0332999  15.9268613   7.7327085
  45.5937989  15.4344991   8.4259942  46.7841116  15.3841580   7.4919161
  38.5125338  12.1180153   7.7351714  39.3383358  11.8183925   7.3550357
  38.1619390  11.3487776   8.1841502  43.4806871  11.4706622   9.8049387
  42.8586880  10.8077327   9.5051615  44.1511738  11.4967754   9.1223035
  36.7133943  10.0366480   8.6940647  35.8765851   9.6088654   8.5124648
  36.6857589  10.2298923   9.6311438  54.0386244  10.4929533  18.6783030
  53.2481788  10.4753672  18.1387530  53.8019599  11.0317827  19.4332067
  54.1584119   7.3421999  15.9915759  54.2082124   7.1772007  16.9331282
  54.0498043   6.4749258  15.6013640  55.6602316   9.7618941  16.2357780
  55.3687125  10.1248921  17.0721241  55.0474448   9.0485949  16.0571112
  53.9089504   4.8851555  14.7037838  54.3843626   5.0779202  13.8956690
  52.9855070   4.9410741  14.4581222  46.8101275   7.9037234  19.5536305
  47.7304284   8.0815833  19.7476351  46.7750858   6.9593280  19.4016004
  39.8063347   5.8138269  12.1959086  40.0249357   6.7455377  12.2147120
  40.2189121   5.4546243  12.9813890  35.8971700   6.7178739  10.4482701
  35.2035171   6.3032692   9.9352655  36.6444691   6.7599276   9.8516120
  44.5422483   4.8168614  20.4026896  44.0589564   5.6168974  20.6090785
  44.6283422   4.8276558  19.4494340  40.4695820   8.7073148  12.4395330
  41.4239074   8.6757091  12.3725262  40.2708344   8.2463772  13.2545556
  41.0595202   7.2774264  15.0066128  41.8788091   7.7718343  15.0300965
  41.3332010   6.3606232  14.9783695  38.8246049  14.2492768   9.4565528
  38.6900517  13.4893169   8.8903526  38.4078111  14.9733668   8.9894317
  41.9815175  15.1462085   9.6683971  41.8647559  16.0907517   9.5662661
  41.1607621  14.8435646  10.0569770  36.3130116   1.6112398  15.7058325
  36.9588980   1.1011352  16.1945550  36.1047268   2.3481080  16.2801750
  48.8383509   8.6793246  21.2050465  49.7074668   8.8533898  20.8437100
  48.3590260   9.4987663  21.0826195  43.0069689  15.7990347  12.8839899
  43.9096936  15.8313957  13.2006394  42.7807059  14.8690798  12.8986235
  44.7623291  14.5521333   9.5449978  43.8118922  14.5523195   9.4314350
  45.0655777  13.8054068   9.0286012  60.4975984  20.3881872  10.6095740
  61.1354394  20.2688619   9.9059080  60.3796827  21.3362716  10.6683692
  57.3065691  20.3409300  10.5457265  56.9684202  20.2250364   9.6577800
  58.1755459  19.9400465  10.5258271  53.1652506  22.1944776   6.5354156
  52.6017371  22.1034713   5.7670443  53.0504901  21.3744681   7.0156648
  57.7885474  21.4944151  16.5043470  57.7774114  21.0996950  15.6323974
  57.9506113  20.7610224  17.0977242  50.7116938  23.6895968   9.3738376
  51.5038230  23.3486792   8.9584675  50.9513588  23.7990943  10.2940530
  52.6707692  22.9504881   2.2455755  53.4438568  22.4033868   2.1068631
  53.0233091  23.8149130   2.4570216  54.5092735  24.2781263  15.4522654
  54.2182601  25.1826894  15.3369321  55.1449719  24.3197791  16.1666724
  55.4348942  21.6558112  12.0424014  56.0312514  21.4314134  11.3280977
  55.4923913  20.9142857  12.6449462  57.0701800  20.4735800   5.7845269
  56.7060007  19.9466421   6.4958191  57.9268916  20.0834269   5.6111755
  59.4682620  23.9642679  12.4472448  59.1683343  24.8667718  12.3388255
  59.1233679  23.6974862  13.2993601  52.9195101  20.4156476   8.4809152
  51.9945598  20.2832690   8.6886844  53.1679515  21.1950695   8.9779095
  50.2803912  20.0589749   9.3152941  50.4096294  20.3124228  10.2292353
  49.6001364  20.6517457   8.9957597  54.4503400  30.7286999   5.4143416
  54.3727429  31.6794824   5.4931896  53.8465043  30.3832872   6.0718342
  56.9420629  17.9014865  18.0704783  56.1653964  18.4608785  18.0607647
  57.5811193  18.3871648  18.5919653  55.1967002  20.7100318  17.6322750
  55.9381686  21.2485362  17.3557573  54.4903987  21.3366607  17.7894301
  60.6722341  22.8529458  16.2294911  61.0805697  22.4111869  15.4849543
  59.9499603  22.2782086  16.4829104  57.0253411  17.7902065  13.6028468
  57.8714607  18.2141479  13.7463117  56.9652049  17.1335689  14.2967031
  60.9951156  23.4130649   9.9847200  60.3660018  23.5776363   9.2823268
  60.6076818  23.8272259  10.7558164  60.1752857  15.4506433  15.2609642
  59.9313789  16.2048494  14.7243917  60.4512787  15.8291781  16.0956889
  62.1291320  21.9945046  13.9386907  62.3408215  22.6376806  13.2621288
  62.0821068  21.1607362  13.4708837  59.7317548  14.6062867  10.8423479
  58.8702028  14.9044120  11.1340217  59.7579983  14.8233265   9.9104512
  56.5479118  23.1505057   7.2497285  57.0117463  23.4292760   6.4601908
  56.2835916  22.2488502   7.0670376  53.4403199  22.6976539  10.1877048
  54.0104556  23.1263807   9.5494533  54.0311311  22.4159123  10.8861234
  55.4848004  19.2728209   4.0586850  56.1872047  19.7249253   4.5260777
  55.1528632  18.6312028   4.6866743  53.9328365  17.8639966  18.4338060
  53.3027026  18.5456247  18.6673456  53.8264453  17.7523048  17.4891198
  49.2273338  17.5311762   9.3603984  48.4372392  17.7869291   8.8844094
  49.7184585  18.3460100   9.4656024  63.2437147  24.8717001  12.1109265
  64.0654591  24.4697189  11.8291946  63.2399550  24.7685235  13.0625380
  51.1788083  17.8956341   6.3187460  50.3819247  18.0075036   6.8370956
  50.9513676  18.2342994   5.4528351  57.0093751  24.4201045  14.2669975
  57.0738183  24.8821452  15.1028147  56.3004675  23.7898409  14.3952285
  47.5111041  17.7842253  11.7918975  47.7619079  18.6689262  12.0576550
  48.0470589  17.6046854  11.0194066  56.7241769  26.0869152   4.1348955
  56.5887443  26.9320688   4.5633803  57.2651581  26.2888430   3.3714889
  53.2109108  12.1660732  20.7963311  52.8176054  11.6126930  21.4710955
  54.0275249  12.4771310  21.1869828  50.1771166  23.6044590   4.7076880
  50.6895687  24.3987840   4.8582445  50.8293879  22.9070881   4.6410482
  51.9866051  26.7210346   6.7899634  52.1632679  27.6428311   6.6020618
  52.7822884  26.4068766   7.2194013  56.1277069  13.5818611  18.3883567
  56.8686783  14.1825764  18.3088030  56.3594992  12.8396249  17.8301610
  51.2718407  18.7674978  16.6661797  51.1571922  17.8660236  16.9668896
  50.4162925  19.0138675  16.3146613  58.3510245  26.7092719  18.2649297
  57.9074099  25.9229097  17.9470202  59.0127459  26.8971869  17.5993188
  53.1097366  28.2388520  12.7909976  53.6604791  28.1105584  12.0186970
  52.2708842  28.5383409  12.4404869  60.4491483  26.9895519  16.2930699
  60.4309958  27.8104400  15.8010968  61.3711403  26.8649594  16.5180840
  56.9064537  24.5039648  17.1354207  57.4392874  23.7427936  16.9053515
  56.3778618  24.2113300  17.8778362  48.1420083  21.9333244   5.4836451
  48.9795305  22.3430253   5.2670159  48.3198350  20.9932687   5.4536645
  55.3973658  12.0643099   9.6363264  56.2626655  11.8685908   9.2769153
  55.4651167  11.8353451  10.5632621  58.2717250  23.6325640   4.6473019
  57.7438611  22.8978400   4.3346257  57.7704753  24.4100317   4.4012987
  63.2510096  21.8274661   9.7640065  62.5933770  22.5173922   9.8520194
  64.0550495  22.2171093  10.1074052  53.0035978  14.2945307   7.0079631
  53.5779729  14.0720488   6.2752824  53.5906960  14.3634001   7.7608232
  59.3237929  30.1603358   0.5704678  58.6499628  30.4635055   1.1789636
  59.7103751  30.9632438   0.2210135  58.5396386  17.6568489  10.0602348
  57.6218947  17.8783436   9.9024036  58.9556529  17.7314800   9.2014055
  61.2710290  27.0001532   6.8772968  61.5633265  27.5606589   6.1585334
  61.7808911  27.2930093   7.6326127  48.1646254  19.2723960   6.1547184
  47.9670654  18.6793320   5.4298251  47.6092918  18.9676170   6.8723123
  56.1442978  19.1647066   8.2741778  56.1991587  18.2120903   8.1984254
  55.3334180  19.3206505   8.7583076  54.0835337  17.7824126   6.0332156
  53.2703203  18.0818297   6.4397349  54.5794332  17.3879815   6.7506639
  56.2343915  27.7781883   7.9666421  56.1920094  28.0042729   7.0374953
  57.1506614  27.5445257   8.1152222  59.6809549  18.2465950  14.8647050
  60.0358937  18.4737424  15.7241516  60.3281680  18.5784327  14.2424306
  53.5749412  15.3542481  11.6493391  54.2148792  15.2131241  10.9516355
  52.7426943  15.0676995  11.2731993  65.4376666  23.4360913  10.5807651
  65.8713172  23.3436202  11.4290705  66.1508246  23.4118414   9.9427667
  54.3509716  24.6544912   7.7628384  55.1450315  24.1595232   7.5610959
  53.6401409  24.1262775   7.3996089  59.1704561  27.0363007  12.1140752
  59.2241583  27.6053944  12.8818467  58.3019342  27.2064892  11.7494789
  50.6592480  18.7987994   3.8388137  49.7290068  18.7372449   4.0558099
  50.7549952  18.2763946   3.0424778  50.5778029  15.3242806   6.4266378
  50.8384846  16.2388140   6.3175539  51.3995201  14.8567249   6.5762991
  52.0502954  16.7380564  13.5965203  52.7226007  16.5297926  12.9477852
  51.2232741  16.5402650  13.1570435  66.2992215  23.4784614  13.1140536
  66.4928105  24.3830424  13.3599811  66.1992833  23.0192033  13.9479121
  57.9528526  13.3642505  15.6130864  57.3056441  14.0632454  15.5195340
  58.7229541  13.7978648  15.9807112  61.3607324  23.6291357  18.6881417
  61.2092830  23.4001908  17.7711501  61.3512003  24.5861958  18.7012762
  58.1292660  21.2023269  13.6727683  59.0584720  21.3534429  13.4996651
  57.7083690  21.2907290  12.8176330  56.9280992  25.2273934  11.4426221
  56.7892078  24.8592718  12.3152159  56.1395588  25.7421573  11.2710179
  57.5229144  30.3283030   2.7851758  57.6980900  29.8571074   3.5997380
  56.8361932  30.9548797   3.0133018  58.4786207  24.6055537   8.8315059
  58.1436040  24.5656307   9.7272709  57.9790153  23.9400252   8.3585469
  52.4530451  20.0123167  14.3567640  52.3150249  19.2803405  14.9579179
  53.3635375  19.9232067  14.0751828  55.0812752  19.7243126  13.8451320
  55.7912370  19.0836318  13.8037938  55.0382060  19.9756021  14.7677500
  63.0699531  26.6610479  16.7657899  63.0112077  25.9769699  16.0988482
  63.4719049  27.4029469  16.3138525  53.7941686  16.7108344  15.6646959
  53.2579043  16.2599082  16.3168555  53.2058394  16.8454253  14.9217423
  52.0890229  33.4772393   9.5591618  52.3286828  34.1090917  10.2370636
  51.2459426  33.1260433   9.8456977  63.0716938  24.6250063  14.9971878
  62.1843717  24.2875985  15.1198277  63.6415489  23.8933094  15.2340644
  44.7246085  20.9574155   8.3214930  45.4117125  20.6435885   7.7335945
  44.5694214  21.8615520   8.0482181  49.5280807  15.8464352  12.7499954
  49.4438996  15.2390021  12.0150363  48.7063514  16.3373370  12.7509450
  56.6018091  29.2851516  11.9633122  56.5288263  30.0906487  12.4752426
  56.1595484  29.4843481  11.1381143  56.3907871  28.5223286   5.4735943
  55.6075393  29.0644966   5.5674168  57.0900616  29.0397265   5.8730184
  59.0616775  29.1838350  14.1191280  59.7744747  29.8185814  14.0467182
  58.5706803  29.2802216  13.3031282  56.2839490  16.4735298   7.8441833
  55.9137277  15.9206338   8.5322739  56.7798582  15.8693432   7.2916833
  54.1128688  26.9332793  14.9396851  54.8138148  27.5669276  15.0926245
  53.6423803  27.2747525  14.1792490  61.9129974  19.4877401  12.7649401
  61.2601425  19.7353308  12.1101854  62.2910354  18.6741539  12.4311879
  58.8737148  29.5237094   6.8677572  59.0559543  28.7058750   7.3305324
  59.6970134  29.7404786   6.4302462  59.2079314  28.4505279   4.1292620
  59.7367080  27.9397733   3.5162782  59.4707533  28.1347809   4.9938153
  57.9617547  20.2297212  19.2515439  57.2858184  20.1291341  19.9217814
  58.7845181  20.0736425  19.7151436  49.7096406  26.4669148  11.8727954
  50.2949843  25.7212836  12.0055858  49.5121245  26.7773105  12.7564618
  52.5635062  29.5020395   6.8890396  51.8945437  29.9866523   6.4054436
  52.4247931  29.7489616   7.8033775  44.3014061  19.0374748  10.5932397
  44.3398161  18.5038339  11.3869515  43.7954354  18.5109954   9.9743374
  56.7040330  31.5364139  13.4873055  57.2558638  31.6995761  14.2522140
  57.0446524  32.1268577  12.8153079  51.6804823  13.8839289  14.0894939
  51.7446150  14.7454120  13.6772337  51.6171944  13.2713290  13.3567298
  51.1557096  15.9562421  17.7367974  51.7829135  15.5739499  18.3505498
  50.2985015  15.7376623  18.1023666  61.5551205  26.3625397  19.3421709
  62.0991108  26.9755355  18.8476664  60.9738049  26.9204975  19.8588722
  47.9322639  17.7638850   3.6686328  48.2276080  16.8549529   3.6153382
  47.0310674  17.7426590   3.3467331  59.8408717  29.4846115  10.4736737
  59.7159857  28.6835854   9.9647682  60.4987809  29.9792308   9.9850707
  51.4616886  15.8394847   9.6513877  50.7403471  16.4530815   9.5121350
  52.2510141  16.3752612   9.5730523  61.9043626  27.2855135  12.1016287
  60.9573961  27.1660486  12.0294614  62.2526399  26.3977633  12.1842548
  54.2643199  13.1749274  15.9254529  54.7877601  13.4211570  16.6880838
  54.0455532  14.0069308  15.5057666  49.6610480  15.4452948   3.7925654
  49.3323186  14.5650327   3.6100759  50.0149851  15.3900617   4.6802043
  58.9090059  27.0807851   8.3020639  58.7615022  26.1524558   8.4828209
  59.7343553  27.1027942   7.8177714  52.7752303  15.7325918   4.1601131
  53.1148376  16.2611839   3.4379740  53.2224424  16.0706324   4.9359698
  62.5124181  27.9036410   9.3885512  63.4370728  27.6979271   9.2509963
  62.3439484  27.6552811  10.2974853  55.4695744  14.1162969  13.6104199
  55.1292565  13.3170782  14.0124879  54.7634751  14.4164679  13.0381032
  56.1212216  11.2012281  12.0631522  56.9438285  10.7272759  11.9410413
  56.3650280  11.9802765  12.5630209  53.6450795  17.8931402   9.8723501
  53.4995376  18.2071705  10.7647782  53.1675998  18.5116302   9.3194400
  55.5047178  14.8833950   9.9204390  55.4908746  13.9875043   9.5836688
  56.2219606  14.8904613  10.5542676  57.3573308  15.3171290  11.9657518
  57.0991086  16.2388361  11.9641848  56.8258349  14.9201724  12.6557982
  48.1196457  20.4336746  12.8111162  47.5749925  21.2096554  12.9431436
  48.9975807  20.7807551  12.6530283  48.9062479  19.5606642  15.7041319
  48.1644215  19.7089278  16.2905949  48.5855223  19.8214908  14.8408068
  56.8506141  29.1022621  15.5021709  57.1593268  28.8571767  16.3744409
  57.6481624  29.3069259  15.0140579  56.8726754  31.2560530   7.7327085
  56.4331744  30.7636909   8.4259942  57.6234871  30.7133498   7.4919161
  49.3519093  27.4472071   7.7351714  50.1777112  27.1475843   7.3550357
  49.0013145  26.6779694   8.1841502  54.3200626  26.7998539   9.8049387
  53.6980635  26.1369244   9.5051615  54.9905493  26.8259671   9.1223035
  47.5527698  25.3658398   8.6940647  46.7159606  24.9380572   8.5124648
  47.5251343  25.5590841   9.6311438  54.3925153  15.2780327  19.3981893
  54.4413309  16.1542450  19.0159663  54.9347667  14.7357720  18.8253536
  64.8779999  25.8221451  18.6783030  64.0875543  25.8045589  18.1387530
  64.6413353  26.3609744  19.4332067  64.9977874  22.6713917  15.9915759
  65.0475879  22.5063924  16.9331282  64.8891797  21.8041176  15.6013640
  53.8814133  25.3502463   3.2807848  54.0302253  26.0337927   2.6274520
  54.6880576  25.3307553   3.7957303  62.2881636  18.6544845  17.3075066
  63.1891499  18.5151310  17.0159063  62.3629611  18.8199300  18.2473243
  56.6224442  16.0311700  16.1528252  55.7527751  16.3245266  15.8810840
  56.8583922  16.6152145  16.8735515  66.4996071  25.0910858  16.2357780
  66.2080879  25.4540839  17.0721241  65.8868202  24.3777867  16.0571112
  64.7483259  20.2143473  14.7037838  65.2237381  20.4071119  13.8956690
  63.8248824  20.2702659  14.4581222  51.6366766  21.3767640   4.2868917
  51.3912808  20.4729970   4.4849127  51.8062680  21.3784791   3.3448395
  59.3263475  12.2491317  13.6693672  59.8445419  12.9852344  13.3440161
  58.9718608  12.5555310  14.5040431  50.9062413  17.1095998   1.7855078
  50.2131658  17.1840353   1.1295114  50.6614165  16.3456342   2.3076595
  57.3809538  27.8450593   0.7519595  56.8083505  28.4640780   0.2990067
  57.9542332  28.3949955   1.2859517  63.4484928  17.0909233  12.9366144
  64.4002351  17.1907331  12.9578368  63.2788378  16.2987502  13.4464228
  61.4699307  14.1764816  13.1225545  60.8749240  14.4569829  12.4272033
  61.1849004  14.6658717  13.8942286  57.6495029  23.2329152  19.5536305
  58.5698039  23.4107751  19.7476351  57.6144612  22.2885197  19.4016004
  46.8677194  18.4267746   8.4789579  46.5479979  17.5733054   8.1863953
  46.3210622  18.6416324   9.2347547  50.6457102  21.1430187  12.1959086
  50.8643111  22.0747294  12.2147120  51.0582876  20.7838161  12.9813890
  55.5184967  16.7163392  21.5861835  55.4181694  17.6657749  21.5173926
  55.3006509  16.3881631  20.7137905  46.7365454  22.0470657  10.4482701
  46.0428926  21.6324610   9.9352655  47.4838445  22.0891194   9.8516120
  55.3816237  20.1460531  20.4026896  54.8983319  20.9460891  20.6090785
  55.4677176  20.1568476  19.4494340  48.6502197  21.9788911   8.3248716
  48.6272885  22.0776598   7.3730599  48.9602833  22.8254062   8.6465882
  51.3089575  24.0365066  12.4395330  52.2632828  24.0049008  12.3725262
  51.1102098  23.5755690  13.2545556  51.8988957  22.6066182  15.0066128
  52.7181846  23.1010261  15.0300965  52.1725764  21.6898150  14.9783695
  49.6639803  29.5784685   9.4565528  49.5294271  28.8185086   8.8903526
  49.2471866  30.3025585   8.9894317  52.8208929  30.4754002   9.6683971
  52.7041313  31.4199435   9.5662661  52.0001376  30.1727564  10.0569770
  47.1523871  16.9404316  15.7058325  47.7982735  16.4303270  16.1945550
  46.9441022  17.6772998  16.2801750  59.6777263  24.0085163  21.2050465
  60.5468423  24.1825816  20.8437100  59.1984015  24.8279580  21.0826195
  53.8463443  31.1282264  12.8839899  54.7490690  31.1605875  13.2006394
  53.6200813  30.1982715  12.8986235  55.6017045  29.8813251   9.5449978
  54.6512676  29.8815113   9.4314350  55.9049532  29.1345985   9.0286012
  51.4921362  14.0871933  19.8033339  52.3552823  13.7308738  20.0136664
  50.9186773  13.7485828  20.4908743  68.1459445  35.6701217  10.5457265
  67.8077957  35.5542282   9.6577800  69.0149213  35.2692382  10.5258271
  64.0046261  37.5236694   6.5354156  63.4411126  37.4326631   5.7670443
  63.8898656  36.7036598   7.0156648  68.6279228  36.8236069  16.5043470
  68.6167869  36.4288867  15.6323974  68.7899868  36.0902142  17.0977242
  61.5510693  39.0187885   9.3738376  62.3431985  38.6778710   8.9584675
  61.7907343  39.1282860  10.2940530  65.3486489  39.6073181  15.4522654
  65.0576355  40.5118812  15.3369321  65.9843474  39.6489709  16.1666724
  66.2742696  36.9850029  12.0424014  66.8706268  36.7606052  11.3280977
  66.3317668  36.2434775  12.6449462  67.9095554  35.8027718   5.7845269
  67.5453761  35.2758339   6.4958191  68.7662670  35.4126187   5.6111755
  70.3076374  39.2934596  12.4472448  70.0077097  40.1959635  12.3388255
  69.9627434  39.0266780  13.2993601  63.7588856  35.7448393   8.4809152
  62.8339352  35.6124607   8.6886844  64.0073269  36.5242613   8.9779095
  61.1197667  35.3881667   9.3152941  61.2490048  35.6416146  10.2292353
  60.4395118  35.9809375   8.9957597  67.7814384  33.2306782  18.0704783
  67.0047718  33.7900702  18.0607647  68.4204947  33.7163565  18.5919653
  66.0360756  36.0392236  17.6322750  66.7775441  36.5777280  17.3557573
  65.3297742  36.6658524  17.7894301  67.8647166  33.1193983  13.6028468
  68.7108361  33.5433396  13.7463117  67.8045804  32.4627607  14.2967031
  71.0146611  30.7798351  15.2609642  70.7707543  31.5340412  14.7243917
  71.2906542  31.1583699  16.0956889  70.5711303  29.9354784  10.8423479
  69.7095782  30.2336038  11.1340217  70.5973738  30.1525183   9.9104512
  64.2796953  38.0268456  10.1877048  64.8498311  38.4555725   9.5494533
  64.8705065  37.7451041  10.8861234  64.7722120  33.1931884  18.4338060
  64.1420781  33.8748165  18.6673456  64.6658208  33.0814965  17.4891198
  60.0667092  32.8603680   9.3603984  59.2766146  33.1161208   8.8844094
  60.5578340  33.6752018   9.4656024  62.0181838  33.2248259   6.3187460
  61.2213001  33.3366953   6.8370956  61.7907430  33.5634911   5.4528351
  67.8487505  39.7492962  14.2669975  67.9131938  40.2113369  15.1028147
  67.1398429  39.1190327  14.3952285  58.3504795  33.1134170  11.7918975
  58.6012834  33.9981180  12.0576550  58.8864344  32.9338772  11.0194066
  64.0502863  27.4952650  20.7963311  63.6569808  26.9418848  21.4710955
  64.8669003  27.8063228  21.1869828  66.9670824  28.9110529  18.3883567
  67.7080537  29.5117682  18.3088030  67.1988747  28.1688166  17.8301610
  62.1112162  34.0966896  16.6661797  61.9965677  33.1952153  16.9668896
  61.2556679  34.3430593  16.3146613  69.1903999  42.0384636  18.2649297
  68.7467854  41.2521015  17.9470202  69.8521213  42.2263787  17.5993188
  63.9491121  43.5680438  12.7909976  64.4998546  43.4397501  12.0186970
  63.1102597  43.8675327  12.4404869  67.7458292  39.8331566  17.1354207
  68.2786628  39.0719854  16.9053515  67.2172373  39.5405217  17.8778362
  58.9813837  37.2625162   5.4836451  59.8189059  37.6722170   5.2670159
  59.1592105  36.3224604   5.4536645  66.2367413  27.3935017   9.6363264
  67.1020410  27.1977825   9.2769153  66.3044922  27.1645368  10.5632621
  63.8429732  29.6237224   7.0079631  64.4173484  29.4012406   6.2752824
  64.4300714  29.6925919   7.7608232  69.3790140  32.9860407  10.0602348
  68.4612701  33.2075354   9.9024036  69.7950284  33.0606717   9.2014055
  59.0040008  34.6015877   6.1547184  58.8064408  34.0085238   5.4298251
  58.4486672  34.2968088   6.8723123  66.9836732  34.4938984   8.2741778
  67.0385342  33.5412820   8.1984254  66.1727934  34.6498423   8.7583076
  64.9229092  33.1116044   6.0332156  64.1096958  33.4110214   6.4397349
  65.4188086  32.7171732   6.7506639  70.5203304  33.5757868  14.8647050
  70.8752691  33.8029341  15.7241516  71.1675435  33.9076245  14.2424306
  64.4143167  30.6834399  11.6493391  65.0542546  30.5423158  10.9516355
  63.5820697  30.3968913  11.2731993  65.1903471  39.9836830   7.7628384
  65.9844069  39.4887150   7.5610959  64.4795163  39.4554693   7.3996089
  70.0098315  42.3654925  12.1140752  70.0635337  42.9345861  12.8818467
  69.1413096  42.5356810  11.7494789  61.4986234  34.1279911   3.8388137
  60.5683822  34.0664367   4.0558099  61.5943706  33.6055864   3.0424778
  61.4171783  30.6534724   6.4266378  61.6778600  31.5680057   6.3175539
  62.2388955  30.1859167   6.5762991  62.8896708  32.0672481  13.5965203
  63.5619762  31.8589843  12.9477852  62.0626495  31.8694567  13.1570435
  68.7922280  28.6934422  15.6130864  68.1450196  29.3924372  15.5195340
  69.5623296  29.1270566  15.9807112  68.9686415  36.5315187  13.6727683
  69.8978475  36.6826347  13.4996651  68.5477445  36.6199208  12.8176330
  67.7674747  40.5565852  11.4426221  67.6285832  40.1884636  12.3152159
  66.9789343  41.0713491  11.2710179  69.3179962  39.9347454   8.8315059
  68.9829794  39.8948224   9.7272709  68.8183907  39.2692170   8.3585469
  63.2924206  35.3415084  14.3567640  63.1544004  34.6095323  14.9579179
  64.2029129  35.2523984  14.0751828  65.9206506  35.0535044  13.8451320
  66.6306125  34.4128236  13.8037938  65.8775815  35.3047938  14.7677500
  64.6335440  32.0400261  15.6646959  64.0972797  31.5891000  16.3168555
  64.0452149  32.1746170  14.9217423  55.5639839  36.2866073   8.3214930
  56.2510879  35.9727803   7.7335945  55.4087968  37.1907437   8.0482181
  60.3674562  31.1756269  12.7499954  60.2832750  30.5681939  12.0150363
  59.5457268  31.6665287  12.7509450  67.4411846  44.6143433  11.9633122
  67.3682017  45.4198405  12.4752426  66.9989239  44.8135399  11.1381143
  69.9010529  44.5130267  14.1191280  70.6138501  45.1477732  14.0467182
  69.4100558  44.6094133  13.3031282  67.1233244  31.8027216   7.8441833
  66.7531032  31.2498256   8.5322739  67.6192337  31.1985349   7.2916833
  64.9522443  42.2624711  14.9396851  65.6531902  42.8961194  15.0926245
  64.4817558  42.6039442  14.1792490  68.8011302  35.5589129  19.2515439
  68.1251939  35.4583259  19.9217814  69.6238936  35.4028343  19.7151436
  60.5490161  41.7961066  11.8727954  61.1343598  41.0504754  12.0055858
  60.3514999  42.1065022  12.7564618  55.1407816  34.3666666  10.5932397
  55.1791915  33.8330257  11.3869515  54.6348108  33.8401871   9.9743374
  67.5434085  46.8656057  13.4873055  68.0952393  47.0287678  14.2522140
  67.8840278  47.4560495  12.8153079  62.5198578  29.2131206  14.0894939
  62.5839904  30.0746037  13.6772337  62.4565698  28.6005208  13.3567298
  61.9950850  31.2854339  17.7367974  62.6222889  30.9031416  18.3505498
  61.1378769  31.0668541  18.1023666  58.7716393  33.0930768   3.6686328
  59.0669834  32.1841447   3.6153382  57.8704429  33.0718508   3.3467331
  62.3010640  31.1686765   9.6513877  61.5797226  31.7822732   9.5121350
  63.0903896  31.7044530   9.5730523  65.1036954  28.5041191  15.9254529
  65.6271356  28.7503488  16.6880838  64.8849287  29.3361226  15.5057666
  60.5004235  30.7744866   3.7925654  60.1716941  29.8942245   3.6100759
  60.8543605  30.7192534   4.6802043  63.6146058  31.0617836   4.1601131
  63.9542130  31.5903757   3.4379740  64.0618178  31.3998242   4.9359698
  66.3089499  29.4454886  13.6104199  65.9686319  28.6462699  14.0124879
  65.6028505  29.7456597  13.0381032  66.9605971  26.5304199  12.0631522
  67.7832040  26.0564677  11.9410413  67.2044034  27.3094682  12.5630209
  64.4844549  33.2223319   9.8723501  64.3389130  33.5363622  10.7647782
  64.0069753  33.8408220   9.3194400  66.3440932  30.2125867   9.9204390
  66.3302501  29.3166961   9.5836688  67.0613360  30.2196531  10.5542676
  68.1967063  30.6463208  11.9657518  67.9384841  31.5680278  11.9641848
  67.6652103  30.2493642  12.6557982  58.9590211  35.7628664  12.8111162
  58.4143680  36.5388472  12.9431436  59.8369561  36.1099468  12.6530283
  59.7456233  34.8898560  15.7041319  59.0037969  35.0381195  16.2905949
  59.4248978  35.1506826  14.8408068  67.6899896  44.4314538  15.5021709
  67.9987022  44.1863685  16.3744409  68.4875378  44.6361177  15.0140579
  60.1912847  42.7763989   7.7351714  61.0170867  42.4767761   7.3550357
  59.8406899  42.0071611   8.1841502  65.1594380  42.1290457   9.8049387
  64.5374389  41.4661162   9.5051615  65.8299247  42.1551589   9.1223035
  58.3921452  40.6950315   8.6940647  57.5553360  40.2672490   8.5124648
  58.3645097  40.8882759   9.6311438  65.2318908  30.6072245  19.3981893
  65.2807063  31.4834368  19.0159663  65.7741422  30.0649638  18.8253536
  67.4618196  31.3603617  16.1528252  66.5921506  31.6537183  15.8810840
  67.6977676  31.9444062  16.8735515  70.1657230  27.5783234  13.6693672
  70.6839174  28.3144261  13.3440161  69.8112363  27.8847228  14.5040431
  61.7456168  32.4387916   1.7855078  61.0525413  32.5132271   1.1295114
  61.5007920  31.6748259   2.3076595  68.4888784  38.5621070  19.5536305
  69.4091793  38.7399669  19.7476351  68.4538367  37.6177115  19.4016004
  57.7070949  33.7559663   8.4789579  57.3873733  32.9024972   8.1863953
  57.1604377  33.9708241   9.2347547  61.4850856  36.4722104  12.1959086
  61.7036866  37.4039212  12.2147120  61.8976630  36.1130079  12.9813890
  66.3578722  32.0455310  21.5861835  66.2575448  32.9949667  21.5173926
  66.1400264  31.7173549  20.7137905  57.5759209  37.3762575  10.4482701
  56.8822680  36.9616528   9.9352655  58.3232200  37.4183111   9.8516120
  66.2209992  35.4752449  20.4026896  65.7377073  36.2752809  20.6090785
  66.3070931  35.4860394  19.4494340  59.4895951  37.3080829   8.3248716
  59.4666639  37.4068516   7.3730599  59.7996588  38.1545979   8.6465882
  62.1483329  39.3656984  12.4395330  63.1026583  39.3340926  12.3725262
  61.9495853  38.9047607  13.2545556  62.7382711  37.9358100  15.0066128
  63.5575600  38.4302178  15.0300965  63.0119519  37.0190068  14.9783695
  60.5033558  44.9076603   9.4565528  60.3688026  44.1477004   8.8903526
  60.0865620  45.6317503   8.9894317  57.9917625  32.2696234  15.7058325
  58.6376489  31.7595188  16.1945550  57.7834777  33.0064915  16.2801750
  64.6857198  46.4574182  12.8839899  65.5884445  46.4897792  13.2006394
  64.4594568  45.5274633  12.8986235  62.3315116  29.4163851  19.8033339
  63.1946578  29.0600655  20.0136664  61.7580527  29.0777745  20.4908743
  68.8311380  47.5988151  15.7058325  69.4770244  47.0887105  16.1945550
  68.6228531  48.3356833  16.2801750   6.2980610  44.2093629  48.2858313
   5.5444318  43.6401027  48.1302317   6.4328151  44.1756293  49.2328948
   1.2629685  46.4722493  52.9404613   1.4565575  47.3768304  53.1863888
   1.1630303  46.0129912  53.7743198   2.5171748  43.0296160  49.5852517
   2.5061624  43.9120875  49.2146450   1.6489127  42.6767711  49.3907054
   3.1196358  44.1796379  46.1901980   3.5627504  43.4303704  45.7921103
   2.2422868  44.1706516  45.8075712   1.4633540  48.0848738  56.0621857
   1.1718348  48.4478718  56.8985318   0.8505671  47.3715746  55.8835189
   2.6629222  45.6501617  48.5824428   3.4976114  46.0891422  48.7461988
   2.7988351  45.1740271  47.7632673   0.8910475  43.3053232  51.8772521
   0.8586795  42.3669233  52.0632204   1.5011099  43.3837269  51.1438345
   1.0404964  40.0964275  51.9230804   0.5244012  39.3122732  51.7360733
   1.9244912  39.7682992  52.0877323   6.7087025  44.3669239  51.0178557
   7.4390413  44.1054527  51.5786261   6.0993970  43.6297961  51.0580625
   4.7902322  42.5077101  51.6153009   4.0635486  42.3733066  51.0069500
   4.3749609  42.8153930  52.4209727   2.4080117  38.7288954  48.9686440
   3.0024608  38.4884690  48.2579748   2.4806701  38.0096084  49.5959976
   4.7151190  42.0355155  47.7429861   4.1550748  42.1048344  48.5161423
   4.1094693  41.8596139  47.0229358   6.3007208  58.7111668  50.4359817
   6.9385618  58.5918416  49.7323157   6.1828051  59.6592512  50.4947769
   3.1096914  58.6639097  50.3721342   2.7715426  58.5480161  49.4841877
   3.9786683  58.2630262  50.3522348   5.8548477  56.4363122  47.5113025
   6.6411566  56.0182545  47.1603442   6.1187181  57.3409215  47.6794674
   6.0258554  61.8735973  42.2101682   5.3904387  61.9470599  42.9222587
   5.6955960  62.4629571  41.5320761  11.2556904  56.3738356  48.4146004
  11.9882076  55.8037572  48.6483833  10.4996259  55.9859956  48.8552509
   2.8733023  58.7965597  45.6109346   2.5091231  58.2696218  46.3222268
   3.7300139  58.4064066  45.4375832   8.7782324  50.0859930  52.8740612
   8.4465649  50.9555341  52.6501827   8.1827938  49.7696214  53.5534643
   2.5138510  53.8255497  40.6070695   2.6812913  54.6935733  40.9741166
   2.3235680  53.9882778  39.6831984   8.6710987  54.8055016  49.9533962
   7.7627865  54.7370424  49.6592723   8.6198583  55.2826961  50.7815788
   2.4927731  56.2813154  41.5917361   2.3727357  56.7270205  42.4302842
   1.7980320  56.6298472  41.0330900  10.5372634  53.0071454  51.7311836
   9.8947014  53.3003987  51.0851631  10.0327562  52.8924375  52.5365033
   8.1912798  56.7534627  42.4197695   9.1030654  56.9862014  42.2445393
   7.6822445  57.3371672  41.8572774   2.8284635  56.1131862  53.4292545
   3.6745830  56.5371276  53.5727194   2.7683273  55.4565486  54.1231108
   6.7982380  61.7360446  49.8111277   6.1691242  61.9006160  49.1087345
   6.4108042  62.1502055  50.5822241  10.6771612  62.6714884  47.1655641
   9.9922650  63.0513785  46.6152674  10.7615461  63.2810210  47.8987588
   5.9784081  53.7736230  55.0873719   5.7345012  54.5278291  54.5507994
   6.2544011  54.1521578  55.9220966   7.9322543  60.3174843  53.7650984
   8.1439439  60.9606603  53.0885365   7.8852292  59.4837159  53.2972914
   5.5348772  52.9292663  50.6687556   4.6733251  53.2273917  50.9604294
   5.5611207  53.1463062  49.7368589   2.3510342  61.4734854  47.0761362
   2.8148687  61.7522557  46.2865985   2.0867140  60.5718299  46.8934453
   1.2879228  57.5958006  43.8850927   1.9903271  58.0479050  44.3524854
   0.9559856  56.9541825  44.5130820   9.0468371  63.1946798  51.9373342
   9.8685815  62.7926985  51.6556023   9.0430774  63.0915032  52.8889457
  17.1374364  59.5385547  48.2858313  16.3838073  58.9692945  48.1302317
  17.2721906  59.5048211  49.2328948   5.8765456  47.9329511  52.4911926
   5.5329725  48.8231152  52.4151036   6.2444419  47.7431168  51.6281511
   5.8415739  57.9238122  40.9984361   5.3262362  58.6942727  41.2372748
   5.5693047  57.2503258  41.6217422   3.4262850  52.7687823  46.0569599
   2.5704446  52.3794673  45.8775238   3.8389801  52.8479783  45.1969385
   4.9561996  50.3034166  50.4561159   4.4526792  50.2664301  49.6428964
   5.2492603  51.2126909  50.5157816   1.2004882  50.3872896  49.4627341
   2.0657879  50.1915704  49.1033230   1.2682391  50.1583247  50.3896698
  10.8150013  60.6770477  42.9337534  10.0379456  60.3381636  42.4892697
  11.4941494  60.6823100  42.2592500   5.6302042  55.7965214  42.8244142
   5.3252177  56.1111363  43.6754285   6.5832484  55.8746634  42.8671475
   9.0541320  60.1504458  49.5904142   8.3964994  60.8403719  49.6784271
   9.8581719  60.5400890  49.9338129   7.8646778  58.5048831  47.6408084
   8.3778660  59.1378822  48.1429794   8.5148002  57.9050026  47.2751444
   1.1089869  49.4916353  45.5618777   0.4554281  49.1765370  44.9375392
   1.0670343  48.8692093  46.2878600   2.2201074  59.7735648  37.4772069
   1.3128136  59.5424901  37.6763218   2.7172106  58.9773267  37.6646051
   4.3427609  55.9798286  49.8866425   3.4250171  56.2013233  49.7288113
   4.7587753  56.0544597  49.0278132   5.1262657  57.3789702  45.0169105
   5.8734476  57.8911099  44.7076227   5.3954247  57.0573754  45.8773499
   3.3989307  59.8748242  41.9996059   2.4900527  59.5907275  42.0968529
   3.4284391  60.2947321  41.1399366   7.5741494  54.4146818  46.9987894
   6.8364251  53.9024204  47.3298137   7.8268268  53.9747200  46.1871171
   7.6753122  47.1923070  47.5929664   7.9811998  46.3320433  47.3055579
   8.4005726  47.7840690  47.3928657   1.9474201  57.4876863  48.1005855
   2.0022811  56.5350699  48.0248331   1.1365403  57.6436302  48.5847153
   3.0965395  61.4156986  39.3384138   2.6584825  60.6992845  38.8789775
   3.8375836  61.6433101  38.7769229   5.4840773  56.5695747  54.6911127
   5.8390161  56.7967220  55.5505593   6.1312904  56.9014124  54.0688383
  11.2138510  59.6914183  45.3960456  11.0756408  59.8815779  44.4681646
  10.8574729  60.4533566  45.8528508  11.2407889  61.7590710  50.4071728
  11.6744396  61.6665999  51.2554782  11.9539470  61.7348211  49.7691744
  12.1023439  61.8014411  52.9404613  12.2959329  62.7060221  53.1863888
  12.0024057  61.3421830  53.7743198   3.7559750  51.6872301  55.4394941
   3.1087665  52.3862251  55.3459417   4.5260765  52.1208445  55.8071189
   3.9323884  59.5253066  53.4991760   4.8615944  59.6764226  53.3260728
   3.5114914  59.6137087  52.6440407   7.2176623  60.2741368  38.9316195
   6.6005793  59.5488196  38.8349248   6.7493111  61.0350728  38.5883270
   8.8748162  62.9479860  54.8235955   7.9874940  62.6105782  54.9462354
   9.4446713  62.2162891  55.0604721   5.5035745  52.6547712  47.9434226
   6.0004444  51.9017674  47.6235296   4.7322726  52.6912029  47.3777435
  13.3565502  58.3588077  49.5852517  13.3455378  59.2412793  49.2146450
  12.4882882  58.0059628  49.3907054   6.5865525  61.4119399  45.5172649
   5.6521804  61.5320862  45.3477353   6.7642194  60.5091866  45.2532659
   2.0870714  54.7965095  47.6705910   1.7168501  54.2436135  48.3586816
   2.5829806  54.1923228  47.1180910   9.9738077  57.2536718  46.0522683
  10.4398529  58.0864710  45.9782986  10.4245577  56.7881700  46.7567942
   8.0414308  63.5980540  43.0508835   8.3174152  63.4837134  43.9602709
   7.1718807  63.1998025  43.0121008   7.9454740  49.6217305  50.0913584
   7.0317819  49.8521532  50.2595791   8.3747841  49.7055749  50.9427617
   7.7161198  57.8107197  52.5913479   7.0632648  58.0583105  51.9365931
   8.0941578  56.9971336  52.2575956   1.2726968  52.4392766  53.4368276
   0.9323788  51.6400579  53.8388956   0.5665974  52.7394476  52.8645109
   1.9243440  49.5242078  51.8895599   2.7469509  49.0502556  51.7674490
   2.1681503  50.3032562  52.3894286   4.7082797  53.2575485  43.1216833
   4.9246412  54.1400123  42.8205661   4.2276864  52.8661699  42.3922475
   1.3078401  53.2063747  49.7468467   1.2939970  52.3104840  49.4100765
   2.0250830  53.2134410  50.3806753   3.1604532  53.6401087  51.7921595
   2.9022310  54.5618157  51.7905925   2.6289573  53.2431521  52.4822059
   0.7115297  52.0878127  45.0156038   0.8331209  51.1594773  45.2146925
   0.4217340  52.1016813  44.1034353   3.5806488  49.7733037  48.1522757
   3.6028185  49.8372370  47.1974737   3.9974547  48.9337546  48.3463264
  13.9590112  59.5088297  46.1901980  14.4021258  58.7595622  45.7921103
  13.0816622  59.4998433  45.8075712  10.9917317  63.5118344  43.1995909
  11.5168641  63.8505617  42.4745229  10.9039669  62.5765359  43.0159044
  10.8009098  60.9943714  55.8179836  10.8507103  60.8293721  56.7595359
  10.6923021  60.1270973  55.4277717   8.0912860  56.9774642  57.1339143
   8.9922723  56.8381107  56.8423140   8.1660835  57.1429097  58.0737320
  12.3027295  63.4140655  56.0621857  12.0112103  63.7770636  56.8985318
  11.6899426  62.7007664  55.8835189  13.5022977  60.9793535  48.5824428
  14.3369868  61.4183339  48.7461988  13.6382106  60.5032188  47.7632673
  10.5514483  58.5373270  54.5301915  11.0268604  58.7300916  53.7220767
   9.6280048  58.5932456  54.2845299   5.1294699  50.5721114  53.4957749
   5.6476643  51.3082140  53.1704238   4.7749832  50.8785107  54.3304508
   5.3807293  46.9921396  49.0158646   5.6609047  46.3244585  49.6419072
   6.1657900  47.1850492  48.5033310   9.2516152  55.4139030  52.7630221
  10.2033575  55.5137128  52.7842445   9.0819602  54.6217299  53.2728305
   7.2730531  52.4994613  52.9489622   6.6780463  52.7799626  52.2536110
   6.9880228  52.9888514  53.7206363  11.7304230  58.6345150  51.8772521
  11.6980550  57.6961150  52.0632204  12.3404853  58.7129186  51.1438345
   3.5687560  57.5041203  37.9199725   4.5146665  57.3747411  37.9888143
   3.1901805  56.7655865  38.3969153  11.8798718  55.4256193  51.9230804
  11.3637767  54.6414650  51.7360733  12.7638667  55.0974910  52.0877323
   9.5409445  49.1697209  47.8826616   9.3434266  48.8612297  48.7669948
  10.1509151  49.8958848  48.0124546  17.5480779  59.6961157  51.0178557
  18.2784168  59.4346445  51.5786261  16.9387725  58.9589879  51.0580625
  15.6296077  57.8369019  51.6153009  14.9029240  57.7024984  51.0069500
  15.2143363  58.1445848  52.4209727   1.7530478  55.4291179  37.8554610
   0.8461933  55.1324292  37.9317323   2.0306459  55.1320997  36.9888896
   3.3692543  49.9728069  44.0098851   2.5593272  49.6275154  44.3854097
   4.0576960  49.6635613  44.5986463   5.2983092  49.0506116  45.6323148
   5.8514130  49.4701569  46.2913171   5.5353178  48.1241864  45.6746104
   0.5229262  52.2878114  37.9966589   1.3848426  52.6133013  38.2562406
   0.7079606  51.5009610  37.4839655   8.6761899  51.1606641  45.1401812
   8.0960568  51.8191445  44.7579864   8.4097831  50.3383985  44.7289230
   7.1265465  50.5611698  47.3423132   7.6265243  50.6728233  46.5337451
   7.7701073  50.2572751  47.9823941   7.4586777  53.3206731  44.1958160
   6.5712632  53.6056382  43.9778355   7.8740766  53.1600495  43.3485437
  10.8101313  53.3453252  47.9112500  11.5861703  53.8349705  48.1837116
  10.0849447  53.7711306  48.3684369  13.2473871  54.0580871  48.9686440
  13.8418362  53.8176607  48.2579748  13.3200455  53.3388002  49.5959976
   7.4327800  58.8361267  44.4108450   7.3763002  59.2929819  43.5716083
   7.9856143  58.0751952  44.2331293  11.2432606  54.6250999  45.2358570
  10.9869541  54.2247635  46.0666778  10.6185474  55.3394793  45.1108709
  15.5544944  57.3647072  47.7429861  14.9944502  57.4340262  48.5161423
  14.9488448  57.1888057  47.0229358   8.5116688  63.5233935  40.3404640
   9.3462291  63.0915134  40.1582115   8.3501030  63.3515949  41.2681535
   8.1662580  60.0266048  41.7060980   8.1111384  59.8610320  40.7649424
   7.5408635  60.7342081  41.8623169   1.4758705  49.5274157  41.2846298
   1.4637375  50.4715997  41.4414569   2.3682127  49.3444303  40.9905759
   5.2910825  46.1216934  45.5392235   4.5243220  45.5675421  45.6848917
   5.7021530  46.1938803  46.4006386  19.6176079  65.4151847  52.8740612
  19.2859403  66.2847258  52.6501827  19.0221692  65.0988131  53.5534643
  16.7159210  63.2621428  52.4911926  16.3723480  64.1523070  52.4151036
  17.0838173  63.0723086  51.6281511  11.9483623  64.8208270  45.5618777
  11.2948036  64.5057287  44.9375392  11.9064098  64.1984011  46.2878600
  18.5146876  62.5214988  47.5929664  18.8205753  61.6612351  47.3055579
  19.2399481  63.1132608  47.3928657  18.7848494  64.9509223  50.0913584
  17.8711574  65.1813450  50.2595791  19.2141596  65.0347667  50.9427617
  14.4200242  65.1024955  48.1522757  14.4421939  65.1664288  47.1974737
  14.8368301  64.2629464  48.3463264  16.2201048  62.3213314  49.0158646
  16.5002802  61.6536503  49.6419072  17.0051655  62.5142409  48.5033310
  20.3803199  64.4989126  47.8826616  20.1828021  64.1904215  48.7669948
  20.9902905  65.2250765  48.0124546  14.2086298  65.3019986  44.0098851
  13.3987026  64.9567071  44.3854097  14.8970715  64.9927530  44.5986463
  16.1376846  64.3798033  45.6323148  16.6907885  64.7993487  46.2913171
  16.3746932  63.4533781  45.6746104  19.5155653  66.4898558  45.1401812
  18.9354322  67.1483362  44.7579864  19.2491586  65.6675903  44.7289230
  17.9659220  65.8903616  47.3423132  18.4658998  66.0020151  46.5337451
  18.6094827  65.5864669  47.9823941  16.1304579  61.4508852  45.5392235
  15.3636975  60.8967338  45.6848917  16.5415284  61.5230720  46.4006386
   6.2980611  21.2155752  35.0103620   5.5444319  20.6463150  34.8547624
   6.4328152  21.1818416  35.9574254   1.2629686  23.4784616  39.6649920
   1.4565576  24.3830426  39.9109195   1.1630304  23.0192035  40.4988505
   2.5171749  20.0358282  36.3097824   2.5061625  20.9182998  35.9391757
   1.6489128  19.6829833  36.1152361   3.1196359  21.1858502  32.9147287
   3.5627505  20.4365827  32.5166410   2.2422869  21.1768638  32.5321019
   1.4633541  25.0910860  42.7867164   1.1718350  25.4540841  43.6230625
   0.8505673  24.3777869  42.6080496   2.6629224  22.6563740  35.3069734
   3.4976115  23.0953544  35.4707295   2.7988352  22.1802393  34.4877980
   0.8910476  20.3115355  38.6017827   0.8586796  19.3731355  38.7877511
   1.5011100  20.3899391  37.8683652   1.0404965  17.1026398  38.6476110
   0.5244013  16.3184855  38.4606039   1.9244913  16.7745115  38.8122630
   6.7087026  21.3731362  37.7423864   7.4390415  21.1116650  38.3031567
   6.0993972  20.6360083  37.7825932   4.7902323  19.5139224  38.3398315
   4.0635487  19.3795189  37.7314807   4.3749610  19.8216053  39.1455033
   2.4080118  15.7351076  35.6931747   3.0024609  15.4946812  34.9825055
   2.4806702  15.0158207  36.3205283   4.7151191  19.0417277  34.4675168
   4.1550749  19.1110466  35.2406730   4.1094694  18.8658262  33.7474664
   6.3007209  35.7173791  37.1605124   6.9385619  35.5980538  36.4568464
   6.1828052  36.6654635  37.2193076   3.1096916  35.6701219  37.0966648
   2.7715427  35.5542284  36.2087183   3.9786684  35.2692384  37.0767655
   3.5916699  36.8236071  43.0552854   3.5805339  36.4288869  42.1833358
   3.7537338  36.0902144  43.6486625   4.5483290  41.1907663  28.3978004
   3.8971270  41.7761744  28.0112018   5.3427653  41.7213858  28.4573042
   1.2380167  36.9850031  38.5933398   1.8343739  36.7606054  37.8790361
   1.2955138  36.2434777  39.1958845   5.8548478  33.4425245  34.2358332
   6.6411567  33.0244668  33.8848749   6.1187182  34.3471337  34.4039980
   6.0258555  38.8798095  28.9346989   5.3904388  38.9532722  29.6467893
   5.6955962  39.4691694  28.2566068  11.2556905  33.3800478  35.1391310
  11.9882077  32.8099695  35.3729140  10.4996261  32.9922079  35.5797816
   2.8733025  35.8027720  32.3354653   2.5091232  35.2758341  33.0467574
   3.7300141  35.4126189  32.1621138   8.7782325  27.0922052  39.5985919
   8.4465650  27.9617463  39.3747134   8.1827939  26.7758336  40.2779949
   2.5138512  30.8317619  27.3316001   2.6812914  31.6997856  27.6986472
   2.3235681  30.9944901  26.4077291   5.2713845  39.2934598  38.9981832
   4.9714568  40.1959637  38.8897639   4.9264904  39.0266781  39.8502985
   8.6710989  31.8117138  36.6779269   7.7627866  31.7432547  36.3838030
   8.6198584  32.2889083  37.5061094   2.4927733  33.2875277  28.3162668
   2.3727358  33.7332328  29.1548148   1.7980321  33.6360594  27.7576206
   2.7451854  33.2306784  44.6214166   1.9685189  33.7900704  44.6117031
   3.3842418  33.7163567  45.1429036  10.5372635  30.0133577  38.4557143
   9.8947015  30.3066110  37.8096937  10.0327564  29.8986497  39.2610340
   8.1912799  33.7596750  29.1443002   9.1030655  33.9924137  28.9690700
   7.6822446  34.3433794  28.5818081   6.4753566  38.1821378  42.7804295
   6.8836922  37.7403788  42.0358927   5.7530828  37.6074005  43.0338488
   2.8284636  33.1193985  40.1537852   3.6745832  33.5433398  40.2972501
   2.7683274  32.4627609  40.8476415   6.7982381  38.7422568  36.5356584
   6.1691244  38.9068283  35.8332651   6.4108043  39.1564178  37.3067548
  10.6771613  39.6777006  33.8900947   9.9922651  40.0575908  33.3397981
  10.7615462  40.2872333  34.6232895   5.9784082  30.7798353  41.8119025
   5.7345014  31.5340413  41.2753301   6.2544012  31.1583701  42.6466272
   7.9322545  37.3236965  40.4896291   8.1439440  37.9668725  39.8130672
   7.8852293  36.4899282  40.0218221   5.5348774  29.9354786  37.3932863
   4.6733253  30.2336040  37.6849601   5.5611208  30.1525185  36.4613896
   2.3510343  38.4796977  33.8006669   2.8148688  38.7584680  33.0111291
   2.0867141  37.5780421  33.6179759   1.2879229  34.6020129  30.6096234
   1.9903272  35.0541173  31.0770160   0.9559857  33.9603948  31.2376127
   9.0468373  40.2008921  38.6618648   9.8685816  39.7989108  38.3801330
   9.0430775  40.0977155  39.6134764   2.8124976  39.7492964  40.8179359
   2.8769408  40.2113371  41.6537531   2.1035900  39.1190329  40.9461669
  17.1374366  36.5447669  35.0103620  16.3838074  35.9755067  34.8547624
  17.2721907  36.5110334  35.9574254   2.5272994  41.4161072  30.6858339
   2.3918668  42.2612607  31.1143187   3.0682806  41.6180349  29.9224273
   1.9308294  28.9110530  44.9392951   2.6718008  29.5117684  44.8597413
   2.1626217  28.1688168  44.3810993   4.1541470  42.0384638  44.8158681
   3.7105324  41.2521017  44.4979586   4.8158684  42.2263789  44.1502572
   6.2522708  42.3187438  42.8440082   6.2341183  43.1396319  42.3520352
   7.1742628  42.1941513  43.0690224   2.7095762  39.8331567  43.6863591
   3.2424099  39.0719856  43.4562899   2.1809843  39.5405219  44.4287745
   5.8765457  24.9391633  39.2157233   5.5329727  25.8293275  39.1396343
   6.2444420  24.7493291  38.3526818   5.8415740  34.9300245  27.7229668
   5.3262363  35.7004849  27.9618055   5.5693048  34.2565381  28.3462729
   3.4262851  29.7749945  32.7814906   2.5704447  29.3856796  32.6020545
   3.8389803  29.8541906  31.9214692   4.9561998  27.3096289  37.1806466
   4.4526793  27.2726424  36.3674271   5.2492604  28.2189031  37.2403122
   1.2004883  27.3935018  36.1872647   2.0657880  27.1977827  35.8278537
   1.2682392  27.1645370  37.1142004  10.8150014  37.6832599  29.6582841
  10.0379457  37.3443759  29.2138003  11.4941495  37.6885222  28.9837806
   5.6302043  32.8027337  29.5489449   5.3252179  33.1173486  30.3999592
   6.5832485  32.8808757  29.5916782   4.0748475  38.9617560  31.1982403
   3.5469837  38.2270320  30.8855640   3.5735978  39.7392236  30.9522371
   9.0541321  37.1566580  36.3149449   8.3964995  37.8465842  36.4029578
   9.8581720  37.5463012  36.6583435   7.8646780  35.5110953  34.3653391
   8.3778661  36.1440945  34.8675101   8.5148004  34.9112149  33.9996751
   1.1089870  26.4978475  32.2864084   0.4554283  26.1827492  31.6620699
   1.0670344  25.8754216  33.0123907   2.2201075  36.7797770  24.2017376
   1.3128137  36.5487024  24.4008525   2.7172107  35.9835389  24.3891357
   5.1269154  45.4895277  27.1214062   4.4530853  45.7926974  27.7299020
   5.5134976  46.2924358  26.7719519   4.3427611  32.9860409  36.6111731
   3.4250172  33.2075356  36.4533419   4.7587754  33.0606719  35.7523439
   5.1262658  34.3851824  31.7414412   5.8734477  34.8973222  31.4321534
   5.3954248  34.0635877  32.6018805   3.3989309  36.8810365  28.7241366
   2.4900528  36.5969398  28.8213836   3.4284392  37.3009444  27.8644673
   8.6308576  40.4916955  32.4932533   8.1770903  39.6507864  32.5497724
   8.0002543  41.1278353  32.8307314   7.5741496  31.4208941  33.7233201
   6.8364252  30.9086327  34.0543443   7.8268269  30.9809322  32.9116478
   7.0741515  42.3293451  33.4282352   7.3664490  42.8898508  32.7094717
   7.5840136  42.6222012  34.1835511   7.6753123  24.1985193  34.3174970
   7.9812000  23.3382556  34.0300885   8.4005728  24.7902813  34.1173964
   1.9474203  34.4938986  34.8251161   2.0022812  33.5412822  34.7493638
   1.1365405  34.6498425  35.3092460   3.0965396  38.4219109  26.0629444
   2.6584826  37.7054968  25.6035082   3.8375837  38.6495224  25.5014536
   2.0375140  43.1073802  34.5175805   1.9951319  43.3334649  33.5884337
   2.9537839  42.8737177  34.6661606   5.4840774  33.5757870  41.4156434
   5.8390162  33.8029343  42.2750900   6.1312905  33.9076247  40.7933689
  11.2138511  36.6976306  32.1205763  11.0756410  36.8877902  31.1926952
  10.8574730  37.4595689  32.5773814  11.2407891  38.7652833  37.1317035
  11.6744397  38.6728122  37.9800089  11.9539471  38.7410333  36.4937051
   4.9735786  42.3654927  38.6650135   5.0272808  42.9345863  39.4327851
   4.1050567  42.5356812  38.3004172  12.1023440  38.8076533  39.6649920
  12.2959330  39.7122344  39.9109195  12.0024058  38.3483953  40.4988505
   3.7559751  28.6934424  42.1640247   3.1087666  29.3924374  42.0704724
   4.5260766  29.1270568  42.5316495   7.1638549  38.9583276  45.2390801
   7.0124055  38.7293828  44.3220884   7.1543228  39.9153878  45.2522146
   3.9323885  36.5315189  40.2237067   4.8615945  36.6826349  40.0506034
   3.5114915  36.6199210  39.3685714   2.7312217  40.5565853  37.9935605
   2.5923303  40.1884638  38.8661543   1.9426813  41.0713493  37.8219562
   3.3260369  45.6574950  29.3361141   3.5012125  45.1862993  30.1506764
   2.6393157  46.2840716  29.5642402   4.2817432  39.9347456  35.3824442
   3.9467265  39.8948226  36.2782092   3.7821378  39.2692172  34.9094853
   7.2176624  37.2803490  25.6561502   6.6005795  36.5550319  25.5594555
   6.7493112  38.0412851  25.3128576   0.8843977  35.0535045  40.3960703
   1.5943595  34.4128238  40.3547322   0.8413285  35.3047940  41.3186884
   8.8730756  41.9902399  43.3167282   8.8143302  41.3061619  42.6497865
   9.2750274  42.7321389  42.8647908   8.8748163  39.9541983  41.5481262
   7.9874942  39.6167904  41.6707661   9.4446714  39.2225014  41.7850027
   2.4049316  44.6143435  38.5142505   2.3319488  45.4198407  39.0261810
   1.9626709  44.8135401  37.6890527   2.1939096  43.8515205  32.0245327
   1.4106618  44.3936885  32.1183551   2.8931841  44.3689185  32.4239568
   5.5035746  29.6609835  34.6679532   6.0004446  28.9079797  34.3480602
   4.7322728  29.6974151  34.1022742  13.3565503  35.3650200  36.3097824
  13.3455380  36.2474915  35.9391757  12.4882883  35.0121751  36.1152361
   4.8648000  44.5130269  40.6700664   5.5775972  45.1477734  40.5976565
   4.3738028  44.6094135  39.8540666   6.5865527  38.4181522  32.2417956
   5.6521805  38.5382984  32.0722660   6.7642195  37.5153988  31.9777965
   2.0870715  31.8027217  34.3951217   1.7168502  31.2498258  35.0832122
   2.5829807  31.1985351  33.8426217   9.9738078  34.2598841  32.7767990
  10.4398530  35.0926833  32.7028292  10.4245579  33.7943823  33.4813248
   8.0414309  40.6042662  29.7754142   8.3174153  40.4899257  30.6848016
   7.1718808  40.2060147  29.7366315   7.9454741  26.6279428  36.8158891
   7.0317821  26.8583655  36.9841098   8.3747842  26.7117872  37.6672923
   7.7161199  34.8169320  39.3158785   7.0632650  35.0645227  38.6611238
   8.0941579  34.0033458  38.9821262   4.6768373  44.8529013  33.4186955
   4.8590768  44.0350669  33.8814708   5.5001359  45.0696705  32.9811845
   5.0110539  43.7797198  30.6802004   5.5398305  43.2689653  30.0672166
   5.2738758  43.4639728  31.5447537   3.7648772  35.5589131  45.8024822
   3.0889409  35.4583260  46.4727197   4.5876406  35.4028345  46.2660819
   2.5071555  46.8656058  40.0382438   3.0589863  47.0287680  40.8031523
   2.8477749  47.4560496  39.3662463   7.3582430  41.6917316  45.8931093
   7.9022334  42.3047274  45.3986047   6.7769274  42.2496894  46.4098106
   5.6439942  44.8138034  37.0246120   5.5191082  44.0127774  36.5157066
   6.3019034  45.3084227  36.5360090   7.7074851  42.6147054  38.6525670
   6.7605186  42.4952405  38.5803997   8.0557624  41.7269552  38.7351932
   4.7121284  42.4099770  34.8530023   4.5646247  41.4816478  35.0337593
   5.5374778  42.4319861  34.3687098   8.3155406  43.2328329  35.9394895
   9.2401953  43.0271190  35.8019347   8.1470709  42.9844730  36.8484237
   1.2726969  29.4454888  40.1613583   0.9323790  28.6462701  40.5634263
   0.5665976  29.7456599  39.5890416   1.9243441  26.5304201  38.6140906
   2.7469510  26.0564679  38.4919796   2.1681505  27.3094684  39.1139592
   4.7082798  30.2637608  29.8462140   4.9246413  31.1462246  29.5450968
   4.2276866  29.8723821  29.1167782   1.3078403  30.2125869  36.4713774
   1.2939972  29.3166962  36.1346072   2.0250831  30.2196533  37.1052060
   3.1604533  30.6463209  38.5166902   2.9022311  31.5680280  38.5151232
   2.6289574  30.2493644  39.2067366   8.1050722  43.7513996  31.2956987
   8.2787600  43.1860419  30.5430839   8.5979613  44.5514891  31.1136477
   0.7115299  29.0940249  31.7401344   0.8331210  28.1656896  31.9392232
   0.4217341  29.1078935  30.8279660   3.5806489  26.7795160  34.8768064
   3.6028186  26.8434493  33.9220044   3.9974548  25.9399669  35.0708570
  13.9590113  36.5150419  32.9147287  14.4021259  35.7657745  32.5166410
  13.0816624  36.5060556  32.5321019   9.0925895  43.0680761  28.3953885
   9.7876799  43.6887454  28.6141200   9.4349045  42.2176112  28.6706263
  10.9917318  40.5180466  29.9241216  11.5168642  40.8567739  29.1990536
  10.9039670  39.5827482  29.7404351   2.6537367  44.4314540  42.0531093
   2.9624493  44.1863687  42.9253792   3.4512849  44.6361179  41.5649963
   2.6757979  46.5852450  34.2836469   2.2362969  46.0928828  34.9769326
   3.4266096  46.0425417  34.0428544  10.6811224  41.1513370  45.2292414
   9.8906768  41.1337509  44.6896913  10.4444578  41.6901664  45.9841450
  10.8009099  38.0005836  42.5425142  10.8507104  37.8355844  43.4840665
  10.6923022  37.1333095  42.1523023   8.0912861  33.9836764  43.8584449
   8.9922724  33.8443229  43.5668447   8.1660836  34.1491219  44.7982627
   2.4255667  31.3603619  42.7037635   1.5558976  31.6537185  42.4320224
   2.6615147  31.9444064  43.4244899  12.3027296  40.4202778  42.7867164
  12.0112104  40.7832758  43.6230625  11.6899427  39.7069786  42.6080496
  13.5022978  37.9855658  35.3069734  14.3369869  38.4245462  35.4707295
  13.6382107  37.5094311  34.4877980  10.5514484  35.5435393  41.2547222
  11.0268606  35.7363039  40.4466073   9.6280049  35.5994578  41.0090606
   5.1294701  27.5783236  40.2203056   5.6476644  28.3144263  39.8949544
   4.7749833  27.8847229  41.0549815   5.3807295  23.9983519  35.7403952
   5.6609048  23.3306708  36.3664379   6.1657902  24.1912614  35.2278616
   3.1840763  43.1742513  27.3028979   2.6114730  43.7932700  26.8499451
   3.7573557  43.7241874  27.8368901   9.2516153  32.4201153  39.4875528
  10.2033576  32.5199250  39.5087752   9.0819603  31.6279421  39.9973612
   7.2730532  29.5056736  39.6734929   6.6780465  29.7861749  38.9781417
   6.9880229  29.9950637  40.4451670   6.4038023  43.4579663  28.4337561
   7.3368696  43.3925224  28.6370437   6.3161236  44.2935930  27.9752094
   9.0326040  42.7745533  25.3941509   8.9539671  42.4405397  26.2877267
   9.8535706  43.2667301  25.3932981  11.7304231  35.6407272  38.6017827
  11.6980551  34.7023273  38.7877511  12.3404854  35.7191309  37.8683652
   3.5687562  34.5103325  24.6445031   4.5146666  34.3809533  24.7133449
   3.1901807  33.7717987  25.1214459  11.8798719  32.4318316  38.6476110
  11.3637768  31.6476772  38.4606039  12.7638668  32.1037032  38.8122630
   9.5409446  26.1759331  34.6071923   9.3434267  25.8674420  35.4915255
  10.1509152  26.9020970  34.7369853  17.5480781  36.7023279  37.7423864
  18.2784169  36.4408567  38.3031567  16.9387726  35.9652001  37.7825932
  15.6296078  34.8431142  38.3398315  14.9029241  34.7087107  37.7314807
  15.2143365  35.1507970  39.1455033   3.4526254  38.5621071  46.1045688
   4.3729264  38.7399670  46.2985735   3.4175837  37.6177117  45.9525388
   1.7530479  32.4353302  24.5799916   0.8461934  32.1386414  24.6562630
   2.0306460  32.1383120  23.7134203   3.3692545  26.9790191  30.7344158
   2.5593273  26.6337276  31.1099404   4.0576961  26.6697735  31.3231769
   5.2983093  26.0568238  32.3568454   5.8514131  26.4763692  33.0158478
   5.5353179  25.1303986  32.3991410   1.3216192  32.0455312  48.1371218
   1.2212919  32.9949669  48.0683309   1.1037734  31.7173551  47.2647288
   0.5229263  29.2940237  24.7211896   1.3848427  29.6195135  24.9807713
   0.7079608  28.5071733  24.2084961   8.6761900  28.1668763  31.8647119
   8.0960569  28.8253567  31.4825171   8.4097833  27.3446108  31.4534536
   7.1265466  27.5673821  34.0668439   7.6265245  27.6790356  33.2582758
   7.7701074  27.2634874  34.7069247   1.1847462  35.4752451  46.9536280
   0.7014544  36.2752811  47.1600169   1.2708401  35.4860396  46.0003724
   7.4586778  30.3268854  30.9203467   6.5712633  30.6118504  30.7023662
   7.8740767  30.1662617  30.0730744  10.8101314  30.3515375  34.6357806
  11.5861704  30.8411827  34.9082423  10.0849448  30.7773429  35.0929676
   6.6029991  40.0913528  25.0151487   7.3065842  40.2963531  25.6309143
   5.8792640  40.6590290  25.2800570   7.4327802  35.8423390  31.1353757
   7.3763003  36.2991941  30.2961390   7.9856144  35.0814074  30.9576600
  11.2432608  31.6313122  31.9603877  10.9869542  31.2309757  32.7912084
  10.6185476  32.3456916  31.8354016  15.5544945  34.3709195  34.4675168
  14.9944503  34.4402384  35.2406730  14.9488449  34.1950179  33.7474664
   8.5116689  40.5296058  27.0649947   9.3462293  40.0977256  26.8827422
   8.3501032  40.3578071  27.9926841   8.1662581  37.0328171  28.4306286
   8.1111385  36.8672442  27.4894730   7.5408636  37.7404204  28.5868476
   5.4808488  39.3377083  47.7559849   6.3499648  39.5117735  47.3946484
   5.0015240  40.1571500  47.6335578   1.4758706  26.5336280  28.0091605
   1.4637376  27.4778120  28.1659876   2.3682128  26.3506425  27.7151066
   1.4048270  45.2105170  36.0959361   0.4543901  45.2107032  35.9823734
   1.7080757  44.4637905  35.5795396   5.2910826  23.1279057  32.2637541
   4.5243222  22.5737543  32.4094224   5.7021531  23.2000925  33.1251693
  17.1400964  51.0465709  37.1605124  17.7779374  50.9272456  36.4568464
  17.0221807  51.9946553  37.2193076  13.9490670  50.9993137  37.0966648
  13.6109182  50.8834202  36.2087183  14.8180438  50.5984302  37.0767655
   9.8077486  52.8528613  33.0863539   9.2442351  52.7618550  32.3179827
   9.6929881  52.0328518  33.5666032  14.4310453  52.1527989  43.0552854
  14.4199094  51.7580787  42.1833358  14.5931093  51.4194061  43.6486625
   7.3541918  54.3479805  35.9247760   8.1463210  54.0070630  35.5094059
   7.5938568  54.4574780  36.8449913  15.3877045  56.5199581  28.3978004
  14.7365024  57.1053661  28.0112018  16.1821407  57.0505776  28.4573042
   9.3132672  53.6088718  28.7965139  10.0863548  53.0617705  28.6578014
   9.6658071  54.4732967  29.0079600  11.1517714  54.9365100  42.0032038
  10.8607580  55.8410731  41.8878704  11.7874699  54.9781628  42.7176107
  12.0773921  52.3141949  38.5933398  12.6737493  52.0897971  37.8790361
  12.1348893  51.5726694  39.1958845  11.6498950  49.7681384  26.4283589
  11.9024470  49.2462906  25.6667052  10.7123509  49.6047530  26.5310272
  16.6942232  48.7717163  34.2358332  17.4805322  48.3536586  33.8848749
  16.9580937  49.6763255  34.4039980  16.8652310  54.2090013  28.9346989
  16.2298143  54.2824639  29.6467893  16.5349716  54.7983612  28.2566068
  22.0950660  48.7092396  35.1391310  22.8275831  48.1391613  35.3729140
  21.3390015  48.3213996  35.5797816  11.3695238  51.6709490  28.6307964
  11.2531496  50.9954394  29.2989048  11.4797498  51.1841864  27.8140117
  13.7126779  51.1319637  32.3354653  13.3484986  50.6050258  33.0467574
  14.5693895  50.7418106  32.1621138  19.6176080  42.4213970  39.5985919
  19.2859405  43.2909381  39.3747134  19.0221693  42.1050254  40.2779949
  13.3532266  46.1609537  27.3316001  13.5206669  47.0289773  27.6986472
  13.1629435  46.3236819  26.4077291  16.1107599  54.6226516  38.9981832
  15.8108322  55.5251555  38.8897639  15.7658659  54.3558699  39.8502985
   9.5620081  51.0740313  35.0318536   8.6370577  50.9416527  35.2396228
   9.8104494  51.8534532  35.5288478  19.5104743  47.1409056  36.6779269
  18.6021621  47.0724465  36.3838030  19.4592339  47.6181001  37.5061094
  13.3321487  48.6167194  28.3162668  13.2121112  49.0624245  29.1548148
  12.6374075  48.9652512  27.7576206   6.9228892  50.7173586  35.8662325
   7.0521273  50.9708065  36.7801737   6.2426343  51.3101294  35.5466980
  11.0928379  61.3870836  31.9652799  11.0152409  62.3378661  32.0441280
  10.4890023  61.0416709  32.6227726  13.5845609  48.5598702  44.6214166
  12.8078943  49.1192622  44.6117031  14.2236172  49.0455485  45.1429036
  21.3766390  45.3425494  38.4557143  20.7340770  45.6358028  37.8096937
  20.8721318  45.2278415  39.2610340  19.0306553  49.0888668  29.1443002
  19.9424409  49.3216054  28.9690700  18.5216200  49.6725712  28.5818081
  11.8391981  51.3684155  44.1832133  12.5806666  51.9069199  43.9066957
  11.1328967  51.9950444  44.3403685  17.3147321  53.5113295  42.7804295
  17.7230677  53.0695706  42.0358927  16.5924582  52.9365923  43.0338488
  13.6678391  48.4485902  40.1537852  14.5139586  48.8725316  40.2972501
  13.6077029  47.7919527  40.8476415  17.6376136  54.0714486  36.5356584
  17.0084998  54.2360200  35.8332651  17.2501798  54.4856096  37.3067548
  21.5165367  55.0068924  33.8900947  20.8316406  55.3867825  33.3397981
  21.6009217  55.6164251  34.6232895  16.8177836  46.1090271  41.8119025
  16.5738768  46.8632331  41.2753301  17.0937767  46.4875618  42.6466272
  18.7716299  52.6528883  40.4896291  18.9833194  53.2960643  39.8130672
  18.7246047  51.8191200  40.0218221  16.3742528  45.2646704  37.3932863
  15.5127007  45.5627957  37.6849601  16.4004963  45.4817103  36.4613896
  13.1904097  53.8088894  33.8006669  13.6542443  54.0876597  33.0111291
  12.9260896  52.9072339  33.6179759  10.0828179  53.3560376  36.7386432
  10.6529536  53.7847644  36.1003916  10.6736290  53.0742960  37.4370618
  12.1272983  49.9312047  30.6096234  12.8297027  50.3833090  31.0770160
  11.7953612  49.2895865  31.2376127  10.5753345  48.5223803  44.9847443
   9.9452006  49.2040084  45.2182840  10.4689433  48.4106885  44.0400581
   5.8698317  48.1895599  35.9113367   5.0797371  48.4453128  35.4353478
   6.3609565  49.0043937  36.0165408  19.8862127  55.5300838  38.6618648
  20.7079571  55.1281026  38.3801330  19.8824530  55.4269073  39.6134764
   7.8213063  48.5540178  32.8696844   7.0244226  48.6658873  33.3880340
   7.5938655  48.8926831  32.0037735  13.6518730  55.0784882  40.8179359
  13.7163163  55.5405289  41.6537531  12.9429654  54.4482247  40.9461669
   4.1536020  48.4426090  38.3428358   4.4044059  49.3273100  38.6085934
   4.6895569  48.2630691  37.5703450  27.9768120  51.8739587  35.0103620
  27.2231828  51.3046985  34.8547624  28.1115661  51.8402251  35.9574254
  13.3666748  56.7452989  30.6858339  13.2312423  57.5904525  31.1143187
  13.9076561  56.9472267  29.9224273   9.8534088  42.8244569  47.3472694
   9.4601033  42.2710768  48.0220339  10.6700228  43.1355148  47.7379212
   6.8196146  54.2628427  31.2586264   7.3320666  55.0571677  31.4091829
   7.4718858  53.5654718  31.1919866   8.6291030  57.3794184  33.3409017
   8.8057659  58.3012148  33.1530001   9.4247864  57.0652603  33.7703397
  12.7702049  44.2402448  44.9392951  13.5111762  44.8409601  44.8597413
  13.0019972  43.4980086  44.3810993   7.9143387  49.4258815  43.2171181
   7.7996902  48.5244073  43.5178279   7.0587905  49.6722512  42.8655997
  14.9935224  57.3676556  44.8158681  14.5499079  56.5812934  44.4979586
  15.6552438  57.5555706  44.1502572   9.7522346  58.8972357  39.3419360
  10.3029771  58.7689421  38.5696354   8.9133822  59.1967246  38.9914252
  17.0916463  57.6479356  42.8440082  17.0734938  58.4688237  42.3520352
  18.0136383  57.5233431  43.0690224  13.5489517  55.1623485  43.6863591
  14.0817854  54.4011773  43.4562899  13.0203598  54.8697137  44.4287745
  16.7159212  40.2683551  39.2157233  16.3723481  41.1585193  39.1396343
  17.0838174  40.0785209  38.3526818   4.7845062  52.5917082  32.0345835
   5.6220284  53.0014090  31.8179542   4.9623330  51.6516524  32.0046029
  16.6809494  50.2592162  27.7229668  16.1656118  51.0296767  27.9618055
  16.4086803  49.5857298  28.3462729  14.2656605  45.1041863  32.7814906
  13.4098202  44.7148713  32.6020545  14.6783557  45.1833824  31.9214692
  15.7955752  42.6388206  37.1806466  15.2920548  42.6018341  36.3674271
  16.0886359  43.5480949  37.2403122  12.0398638  42.7226936  36.1872647
  12.9051635  42.5269745  35.8278537  12.1076147  42.4937288  37.1142004
  21.6543769  53.0124517  29.6582841  20.8773211  52.6735676  29.2138003
  22.3335250  53.0177140  28.9837806  16.4695798  48.1319254  29.5489449
  16.1645933  48.4465403  30.3999592  17.4226240  48.2100674  29.5916782
  14.9142229  54.2909478  31.1982403  14.3863591  53.5562237  30.8855640
  14.4129732  55.0684154  30.9522371  19.8935075  52.4858498  36.3149449
  19.2358750  53.1757759  36.4029578  20.6975475  52.8754930  36.6583435
   9.6460957  44.9529144  33.5589014  10.2204709  44.7304325  32.8262207
  10.2331939  45.0217838  34.3117616  18.7040534  50.8402871  34.3653391
  19.2172416  51.4732863  34.8675101  19.3541758  50.2404066  33.9996751
   9.9730544  46.9833605  27.5784900   9.1367856  47.3208291  27.8994174
   9.8335314  46.8482585  26.6412037  11.9483625  41.8270393  32.2864084
  11.2948037  41.5119410  31.6620699  11.9064099  41.2046133  33.0123907
  13.0594830  52.1089688  24.2017376  12.1521891  51.8778941  24.4008525
  13.5565862  51.3127307  24.3891357  15.9662908  60.8187195  27.1214062
  15.2924607  61.1218892  27.7299020  16.3528730  61.6216275  26.7719519
  15.1821365  48.3152326  36.6111731  14.2643926  48.5367273  36.4533419
  15.5981509  48.3898637  35.7523439  15.9656413  49.7143742  31.7414412
  16.7128232  50.2265139  31.4321534  16.2348002  49.3927795  32.6018805
  14.2383063  52.2102283  28.7241366  13.3294282  51.9261316  28.8213836
  14.2678147  52.6301361  27.8644673  19.4702330  55.8208872  32.4932533
  19.0164658  54.9799782  32.5497724  18.8396297  56.4570271  32.8307314
  18.4135250  46.7500858  33.7233201  17.6758007  46.2378244  34.0543443
  18.6662024  46.3101240  32.9116478  17.9135270  57.6585369  33.4282352
  18.2058244  58.2190426  32.7094717  18.4233890  57.9513930  34.1835511
  18.5146877  39.5277110  34.3174970  18.8205754  38.6674474  34.0300885
  19.2399482  40.1194730  34.1173964   4.8071233  49.9307797  32.7056568
   4.6095633  49.3377158  31.9807635   4.2517897  49.6260007  33.4232507
  12.7867957  49.8230903  34.8251161  12.8416567  48.8704740  34.7493638
  11.9759159  49.9790342  35.3092460  13.9359151  53.7511026  26.0629444
  13.4978581  53.0346885  25.6035082  14.6769592  53.9787141  25.5014536
  10.7260317  48.4407963  32.5841540   9.9128183  48.7402134  32.9906732
  11.2219311  48.0463652  33.3016022  12.8768895  58.4365720  34.5175805
  12.8345074  58.6626566  33.5884337  13.7931594  58.2029095  34.6661606
  16.3234529  48.9049788  41.4156434  16.6783916  49.1321261  42.2750900
  16.9706660  49.2368164  40.7933689  22.0532266  52.0268223  32.1205763
  21.9150164  52.2169819  31.1926952  21.6968484  52.7887606  32.5773814
  10.2174392  46.0126319  38.2002775  10.8573771  45.8715078  37.5025738
   9.3851922  45.7260832  37.8241377  22.0801645  54.0944750  37.1317035
  22.5138152  54.0020040  37.9800089  22.7933226  54.0702251  36.4937051
  10.9934696  55.3128749  34.3137768  11.7875294  54.8179069  34.1120342
  10.2826388  54.7846612  33.9505473  15.8129540  57.6946845  38.6650135
  15.8666562  58.2637781  39.4327851  14.9444322  57.8648730  38.3004172
   7.3017459  49.4571831  30.3897520   6.3715047  49.3956286  30.6067482
   7.3974931  48.9347784  29.5934161   7.2203008  45.9826644  32.9775762
   7.4809825  46.8971977  32.8684922   8.0420181  45.5151086  33.1272375
   8.6927934  47.3964401  40.1474586   9.3650987  47.1881763  39.4987235
   7.8657720  47.1986487  39.7079819  22.9417195  54.1368451  39.6649920
  23.1353085  55.0414262  39.9109195  22.8417813  53.6775870  40.4988505
  14.5953506  44.0226342  42.1640247  13.9481421  44.7216291  42.0704724
  15.3654521  44.4562486  42.5316495  18.0032303  54.2875194  45.2390801
  17.8517810  54.0585746  44.3220884  17.9936983  55.2445795  45.2522146
  14.7717640  51.8607107  40.2237067  15.7009700  52.0118266  40.0506034
  14.3508670  51.9491127  39.3685714  13.5705972  55.8857771  37.9935605
  13.4317057  55.5176555  38.8661543  12.7820568  56.4005410  37.8219562
  14.1654124  60.9866867  29.3361141  14.3405879  60.5154911  30.1506764
  13.4786912  61.6132634  29.5642402  15.1211187  55.2639374  35.3824442
  14.7861019  55.2240144  36.2782092  14.6215132  54.5984090  34.9094853
   9.0955431  50.6707004  40.9077024   8.9575229  49.9387243  41.5088563
  10.0060354  50.5815904  40.6261211  18.0570378  52.6095408  25.6561502
  17.4399549  51.8842236  25.5594555  17.5886867  53.3704768  25.3128576
  11.7237731  50.3826963  40.3960703  12.4337350  49.7420155  40.3547322
  11.6807040  50.6339858  41.3186884  19.7124510  57.3194316  43.3167282
  19.6537056  56.6353537  42.6497865  20.1144028  58.0613306  42.8647908
  10.4366665  47.3692181  42.2156343   9.9004022  46.9182919  42.8677939
   9.8483374  47.5038090  41.4726807   9.8468924  46.8280832  24.7782806
   8.9698391  46.7069633  24.4145053  10.3226677  46.0366911  24.5261695
  19.7141917  55.2833900  41.5481262  18.8268696  54.9459822  41.6707661
  20.2840468  54.5516932  41.7850027   1.3671064  51.6157992  34.8724313
   2.0542104  51.3019722  34.2845329   1.2119193  52.5199357  34.5991565
   6.1705787  46.5048189  39.3009337   6.0863975  45.8973858  38.5659747
   5.3488493  46.9957207  39.3018834  13.2443071  59.9435353  38.5142505
  13.1713242  60.7490324  39.0261810  12.8020464  60.1427319  37.6890527
  13.0332850  59.1807123  32.0245327  12.2500372  59.7228803  32.1183551
  13.7325596  59.6981102  32.4239568  16.3429501  44.9901752  34.6679532
  16.8398200  44.2371715  34.3480602  15.5716482  45.0266069  34.1022742
  24.1959258  50.6942118  36.3097824  24.1849134  51.5766833  35.9391757
  23.3276637  50.3413669  36.1152361  15.7041754  59.8422187  40.6700664
  16.4169727  60.4769652  40.5976565  15.2131783  59.9386053  39.8540666
  17.4259281  53.7473439  32.2417956  16.4915560  53.8674902  32.0722660
  17.6035950  52.8445906  31.9777965  12.9264469  47.1319135  34.3951217
  12.5562257  46.5790176  35.0832122  13.4223562  46.5277269  33.8426217
  20.8131833  49.5890759  32.7767990  21.2792285  50.4218750  32.7028292
  21.2639333  49.1235740  33.4813248  10.7553668  57.5916630  41.4906235
  11.4563127  58.2253113  41.6435629  10.2848783  57.9331362  40.7301874
  18.8808064  55.9334580  29.7754142  19.1567908  55.8191175  30.6848016
  18.0112562  55.5352065  29.7366315  18.7848495  41.9571346  36.8158891
  17.8711575  42.1875573  36.9841098  19.2141597  42.0409790  37.6672923
  18.5554954  50.1461238  39.3158785  17.9026404  50.3937145  38.6611238
  18.9335334  49.3325376  38.9821262  15.5162128  60.1820931  33.4186955
  15.6984522  59.3642587  33.8814708  16.3395114  60.3988623  32.9811845
  15.8504293  59.1089116  30.6802004  16.3792060  58.5981571  30.0672166
  16.1132513  58.7931646  31.5447537  14.6042527  50.8881049  45.8024822
  13.9283164  50.7875178  46.4727197  15.4270161  50.7320262  46.2660819
   6.3521386  57.1252985  38.4237337   6.9374823  56.3796673  38.5565242
   6.1546224  57.4356942  39.3074001   9.2060041  60.1604233  33.4399780
   8.5370416  60.6450360  32.9563820   9.0672911  60.4073453  34.3543158
   0.9439041  49.6958585  37.1441781   0.9823140  49.1622176  37.9378899
   0.4379333  49.1693791  36.5252758  13.3465310  62.1947976  40.0382438
  13.8983618  62.3579598  40.8031523  13.6871503  62.7852414  39.3662463
   8.3229803  44.5423126  40.6404323   8.3871129  45.4037957  40.2281721
   8.2596923  43.9297128  39.9076681   7.7982075  46.6146258  44.2877357
   8.4254114  46.2323336  44.9014882   6.9409994  46.3960460  44.6533050
  18.1976184  57.0209234  45.8931093  18.7416088  57.6339192  45.3986047
  17.6163029  57.5788812  46.4098106   4.5747618  48.4222688  30.2195712
   4.8701059  47.5133366  30.1662766   3.6735654  48.4010427  29.8976714
  16.4833697  60.1429952  37.0246120  16.3584836  59.3419692  36.5157066
  17.1412788  60.6376145  36.5360090   8.1041865  46.4978684  36.2023261
   7.3828451  47.1114652  36.0630734   8.8935121  47.0336449  36.1239907
  18.5468605  57.9438972  38.6525670  17.5998941  57.8244323  38.5803997
  18.8951378  57.0561470  38.7351932  10.9068179  43.8333111  42.4763912
  11.4302581  44.0795407  43.2390222  10.6880512  44.6653145  42.0567050
   6.3035460  46.1036785  30.3435037   5.9748166  45.2234164  30.1610143
   6.6574830  46.0484454  31.2311426  15.5515039  57.7391688  34.8530023
  15.4040001  56.8108395  35.0337593  16.3768532  57.7611779  34.3687098
   9.4177283  46.3909755  30.7110515   9.7573355  46.9195676  29.9889123
   9.8649403  46.7290161  31.4869081  19.1549160  58.5620247  35.9394895
  20.0795708  58.3563108  35.8019347  18.9864464  58.3136648  36.8484237
  12.1120724  44.7746806  40.1613583  11.7717544  43.9754619  40.5634263
  11.4059730  45.0748517  39.5890416  12.7637196  41.8596118  38.6140906
  13.5863265  41.3856596  38.4919796  13.0075259  42.6386602  39.1139592
  11.4045430  44.8884377  28.9103808  12.1253793  45.2665629  28.4067524
  10.7810734  45.6073253  29.0138786  15.5476553  45.5929526  29.8462140
  15.7640167  46.4754163  29.5450968  15.0670620  45.2015739  29.1167782
  10.2875774  48.5515239  36.4232885  10.1420355  48.8655542  37.3157166
   9.8100978  49.1700139  35.8703783  12.1472157  45.5417787  36.4713774
  12.1333726  44.6458880  36.1346072  12.8644585  45.5488451  37.1052060
  13.9998288  45.9755127  38.5166902  13.7416066  46.8972198  38.5151232
  13.4683328  45.5785562  39.2067366  18.9444477  59.0805914  31.2956987
  19.1181354  58.5152337  30.5430839  19.4373368  59.8806809  31.1136477
   4.7621437  51.0920583  39.3620546   4.2174905  51.8680391  39.4940820
   5.6400786  51.4391388  39.2039667  11.5509053  44.4232167  31.7401344
  11.6724964  43.4948813  31.9392232  11.2611096  44.4370853  30.8279660
  14.4200244  42.1087078  34.8768064  14.4421940  42.1726411  33.9220044
  14.8368303  41.2691586  35.0708570  24.7983868  51.8442337  32.9147287
  25.2415014  51.0949662  32.5166410  23.9210378  51.8352473  32.5321019
  19.9319649  58.3972679  28.3953885  20.6270554  59.0179371  28.6141200
  20.2742799  57.5468030  28.6706263   5.5487458  50.2190480  42.2550703
   4.8069194  50.3673115  42.8415333   5.2280203  50.4798745  41.3917452
  21.8311072  55.8472384  29.9241216  22.3562396  56.1859657  29.1990536
  21.7433425  54.9119399  29.7404351  13.4931121  59.7606458  42.0531093
  13.8018247  59.5155604  42.9253792  14.2906603  59.9653096  41.5649963
  13.5151733  61.9144367  34.2836469  13.0756723  61.4220746  34.9769326
  14.2659850  61.3717335  34.0428544   5.9944072  58.1055908  34.2861097
   6.8202092  57.8059680  33.9059741   5.6438124  57.3363531  34.7350886
  10.9625605  57.4582376  36.3558771  10.3405615  56.7953081  36.0560999
  11.6330472  57.4843508  35.6732419   4.1952677  56.0242235  35.2450031
   3.3584585  55.5964409  35.0634032   4.1676323  56.2174678  36.1820822
  11.0350133  45.9364164  45.9491277  11.0838288  46.8126287  45.5669046
  11.5772647  45.3941558  45.3762920  21.5204978  56.4805288  45.2292414
  20.7300522  56.4629427  44.6896913  21.2838333  57.0193581  45.9841450
  21.6402853  53.3297754  42.5425142  21.6900858  53.1647762  43.4840665
  21.5316777  52.4625013  42.1523023  10.5239112  56.0086300  29.8317231
  10.6727232  56.6921764  29.1783904  11.3305556  55.9891390  30.3466687
  18.9306616  49.3128682  43.8584449  19.8316479  49.1735147  43.5668447
  19.0054590  49.4783137  44.7982627  13.2649421  46.6895537  42.7037635
  12.3952731  46.9829103  42.4320224  13.5008902  47.2735982  43.4244899
  23.1421050  55.7494696  42.7867164  22.8505859  56.1124676  43.6230625
  22.5293182  55.0361704  42.6080496  24.3416733  53.3147575  35.3069734
  25.1763624  53.7537379  35.4707295  24.4775861  52.8386229  34.4877980
  21.3908239  50.8727310  41.2547222  21.8662360  51.0654957  40.4466073
  20.4673804  50.9286496  41.0090606   8.2791745  52.0351477  30.8378300
   8.0337787  51.1313807  31.0358510   8.4487660  52.0368628  29.8957778
  15.9688455  42.9075154  40.2203056  16.4870399  43.6436181  39.8949544
  15.6143588  43.2139147  41.0549815   7.5487393  47.7679835  28.3364462
   6.8556638  47.8424190  27.6804498   7.3039145  47.0040179  28.8585979
  16.2201049  39.3275436  35.7403952  16.5002803  38.6598625  36.3664379
  17.0051656  39.5204532  35.2278616  14.0234518  58.5034430  27.3028979
  13.4508485  59.1224617  26.8499451  14.5967311  59.0533792  27.8368901
  20.0909908  47.7493070  39.4875528  21.0427330  47.8491168  39.5087752
  19.9213358  46.9571339  39.9973612  18.1124287  44.8348654  39.6734929
  17.5174219  45.1153666  38.9781417  17.8273984  45.3242554  40.4451670
  17.2431777  58.7871580  28.4337561  18.1762451  58.7217142  28.6370437
  17.1554990  59.6227847  27.9752094  19.8719794  58.1037451  25.3941509
  19.7933426  57.7697314  26.2877267  20.6929461  58.5959219  25.3932981
  22.5697985  50.9699190  38.6017827  22.5374305  50.0315191  38.7877511
  23.1798609  51.0483227  37.8683652  14.4081316  49.8395243  24.6445031
  15.3540421  49.7101451  24.7133449  14.0295561  49.1009905  25.1214459
  22.7192474  47.7610233  38.6476110  22.2031522  46.9768690  38.4606039
  23.6032422  47.4328950  38.8122630  20.3803201  41.5051249  34.6071923
  20.1828022  41.1966337  35.4915255  20.9902906  42.2312888  34.7369853
  28.3874535  52.0315197  37.7423864  29.1177924  51.7700485  38.3031567
  27.7781481  51.2943919  37.7825932  26.4689832  50.1723059  38.3398315
  25.7422996  50.0379024  37.7314807  26.0537119  50.4799888  39.1455033
  14.2920009  53.8912989  46.1045688  15.2123018  54.0691588  46.2985735
  14.2569592  52.9469034  45.9525388  12.5924233  47.7645219  24.5799916
  11.6855689  47.4678332  24.6562630  12.8700214  47.4675037  23.7134203
   3.5102174  49.0851583  35.0298963   3.1904958  48.2316891  34.7373337
   2.9635602  49.3000161  35.7856930   7.2882081  51.8014024  38.7468469
   7.5068091  52.7331132  38.7656503   7.7007855  51.4421998  39.5323273
  14.2086299  42.3082109  30.7344158  13.3987027  41.9629194  31.1099404
  14.8970716  41.9989653  31.3231769  16.1376847  41.3860156  32.3568454
  16.6907886  41.8055609  33.0158478  16.3746934  40.4595904  32.3991410
  12.1609947  47.3747230  48.1371218  12.0606673  48.3241586  48.0683309
  11.9431489  47.0465468  47.2647288  11.3623018  44.6232155  24.7211896
  12.2242182  44.9487053  24.9807713  11.5473362  43.8363650  24.2084961
   3.3790434  52.7054494  36.9992084   2.6853905  52.2908447  36.4862039
   4.1263425  52.7475031  36.4025503  19.5155654  43.4960681  31.8647119
  18.9354323  44.1545485  31.4825171  19.2491587  42.6738026  31.4534536
  17.9659221  42.8965739  34.0668439  18.4658999  43.0082273  33.2582758
  18.6094829  42.5926792  34.7069247  12.0241217  50.8044368  46.9536280
  11.5408298  51.6044728  47.1600169  12.1102156  50.8152313  46.0003724
   5.2927176  52.6372748  34.8758099   5.2697864  52.7360435  33.9239982
   5.6027813  53.4837899  35.1975265   7.9514554  54.6948903  38.9904714
   8.9057808  54.6632845  38.9234645   7.7527078  54.2339527  39.8054940
   8.5413936  53.2650019  41.5575511   9.3606825  53.7594098  41.5810349
   8.8150744  52.3481987  41.5293079  18.2980532  45.6560771  30.9203467
  17.4106387  45.9410422  30.7023662  18.7134522  45.4954535  30.0730744
  21.6495069  45.6807292  34.6357806  22.4255459  46.1703745  34.9082423
  20.9243203  46.1065347  35.0929676  24.0867627  46.3934912  35.6931747
  24.6812118  46.1530648  34.9825055  24.1594211  45.6742042  36.3205283
   6.3064783  60.2368523  36.0074912   6.1719251  59.4768923  35.4412910
   5.8896845  60.9609422  35.5403701  17.4423746  55.4205446  25.0151487
  18.1459596  55.6255449  25.6309143  16.7186395  55.9882208  25.2800570
  18.2721556  51.1715307  31.1353757  18.2156758  51.6283859  30.2961390
  18.8249899  50.4105992  30.9576600  22.0826362  46.9605039  31.9603877
  21.8263296  46.5601675  32.7912084  21.4579230  47.6748833  31.8354016
  26.3938700  49.7001112  34.4675168  25.8338258  49.7694302  35.2406730
  25.7882203  49.5242097  33.7474664   9.4633909  61.1337840  36.2193354
   9.3466293  62.0783272  36.1172045   8.6426355  60.8311401  36.6079153
  19.3510443  55.8587975  27.0649947  20.1856047  55.4269174  26.8827422
  19.1894786  55.6869989  27.9926841  19.0056335  52.3620089  28.4306286
  18.9505139  52.1964360  27.4894730  18.3802391  53.0696122  28.5868476
   3.7948850  47.5988153  42.2567708   4.4407714  47.0887107  42.7454934
   3.5866002  48.3356835  42.8311134  16.3202243  54.6669000  47.7559849
  17.1893402  54.8409653  47.3946484  15.8408994  55.4863417  47.6335578
  12.3152461  41.8628198  28.0091605  12.3031131  42.8070038  28.1659876
  13.2075883  41.6798343  27.7151066  10.4888423  61.7866101  39.4349283
  11.3915670  61.8189712  39.7515778  10.2625793  60.8566552  39.4495619
  12.2442025  60.5397088  36.0959361  11.2937656  60.5398950  35.9823734
  12.5474511  59.7929823  35.5795396  16.1304580  38.4570974  32.2637541
  15.3636976  37.9029461  32.4094224  16.5415285  38.5292843  33.1251693
   8.1346341  44.7455770  46.3542723   8.9977803  44.3892575  46.5646047
   7.5611752  44.4069665  47.0418127  27.9794718  66.3757626  37.1605124
  28.6173128  66.2564374  36.4568464  27.8615561  67.3238470  37.2193076
  24.7884425  66.3285055  37.0966648  24.4502936  66.2126119  36.2087183
  25.6574193  65.9276220  37.0767655  25.2704208  67.4819906  43.0552854
  25.2592848  67.0872705  42.1833358  25.4324847  66.7485979  43.6486625
  22.9167676  67.6433867  38.5933398  23.5131248  67.4189889  37.8790361
  22.9742647  66.9018612  39.1958845  22.4892704  65.0973302  26.4283589
  22.7418225  64.5754823  25.6667052  21.5517263  64.9339447  26.5310272
  27.5335987  64.1009080  34.2358332  28.3199076  63.6828503  33.8848749
  27.7974691  65.0055172  34.4039980  27.7046064  69.5381931  28.9346989
  27.0691897  69.6116557  29.6467893  27.3743471  70.1275529  28.2566068
  32.9344414  64.0384313  35.1391310  33.6669586  63.4683530  35.3729140
  32.1783770  63.6505914  35.5797816  22.2088993  67.0001408  28.6307964
  22.0925251  66.3246311  29.2989048  22.3191253  66.5133782  27.8140117
  24.5520534  66.4611555  32.3354653  24.1878741  65.9342176  33.0467574
  25.4087650  66.0710024  32.1621138  30.4569834  57.7505888  39.5985919
  30.1253159  58.6201299  39.3747134  29.8615448  57.4342172  40.2779949
  24.1926021  61.4901455  27.3316001  24.3600423  62.3581691  27.6986472
  24.0023190  61.6528736  26.4077291  20.4013835  66.4032230  35.0318536
  19.4764332  66.2708445  35.2396228  20.6498249  67.1826450  35.5288478
  30.3498498  62.4700974  36.6779269  29.4415375  62.4016382  36.3838030
  30.2986093  62.9472919  37.5061094  24.1715242  63.9459112  28.3162668
  24.0514867  64.3916163  29.1548148  23.4767830  64.2944430  27.7576206
  17.7622646  66.0465504  35.8662325  17.8915028  66.2999983  36.7801737
  17.0820098  66.6393212  35.5466980  24.4239363  63.8890619  44.6214166
  23.6472698  64.4484539  44.6117031  25.0629927  64.3747402  45.1429036
  32.2160144  60.6717412  38.4557143  31.5734524  60.9649945  37.8096937
  31.7115073  60.5570332  39.2610340  29.8700308  64.4180585  29.1443002
  30.7818164  64.6507972  28.9690700  29.3609955  65.0017630  28.5818081
  22.6785736  66.6976073  44.1832133  23.4200420  67.2361117  43.9066957
  21.9722721  67.3242361  44.3403685  28.1541075  68.8405213  42.7804295
  28.5624431  68.3987624  42.0358927  27.4318337  68.2657841  43.0338488
  24.5072145  63.7777820  40.1537852  25.3533341  64.2017233  40.2972501
  24.4470783  63.1211444  40.8476415  28.4769890  69.4006404  36.5356584
  27.8478752  69.5652118  35.8332651  28.0895552  69.8148013  37.3067548
  32.3559122  70.3360842  33.8900947  31.6710160  70.7159743  33.3397981
  32.4402971  70.9456168  34.6232895  27.6571591  61.4382188  41.8119025
  27.4132523  62.1924249  41.2753301  27.9331521  61.8167536  42.6466272
  29.6110054  67.9820801  40.4896291  29.8226949  68.6252561  39.8130672
  29.5639802  67.1483117  40.0218221  27.2136283  60.5938621  37.3932863
  26.3520762  60.8919875  37.6849601  27.2398717  60.8109020  36.4613896
  24.0297852  69.1380812  33.8006669  24.4936197  69.4168515  33.0111291
  23.7654650  68.2364256  33.6179759  22.9666738  65.2603964  30.6096234
  23.6690781  65.7125008  31.0770160  22.6347366  64.6187783  31.2376127
  21.4147100  63.8515721  44.9847443  20.7845760  64.5332002  45.2182840
  21.3083187  63.7398802  44.0400581  16.7092072  63.5187517  35.9113367
  15.9191126  63.7745045  35.4353478  17.2003319  64.3335855  36.0165408
  30.7255882  70.8592756  38.6618648  31.5473325  70.4572943  38.3801330
  30.7218284  70.7560990  39.6134764  18.6606817  63.8832096  32.8696844
  17.8637981  63.9950790  33.3880340  18.4332410  64.2218748  32.0037735
  14.9929775  63.7718007  38.3428358  15.2437813  64.6565017  38.6085934
  15.5289323  63.5922609  37.5703450  38.8161875  67.2031505  35.0103620
  38.0625583  66.6338903  34.8547624  38.9509416  67.1694169  35.9574254
  20.6927842  58.1536487  47.3472694  20.2994788  57.6002685  48.0220339
  21.5093983  58.4647065  47.7379212  23.6095803  59.5694366  44.9392951
  24.3505517  60.1701519  44.8597413  23.8413726  58.8272004  44.3810993
  18.7537141  64.7550733  43.2171181  18.6390656  63.8535990  43.5178279
  17.8981659  65.0014430  42.8655997  27.5552966  55.5975469  39.2157233
  27.2117236  56.4877110  39.1396343  27.9231929  55.4077126  38.3526818
  27.5203249  65.5884080  27.7229668  27.0049872  66.3588685  27.9618055
  27.2480557  64.9149216  28.3462729  25.1050360  60.4333781  32.7814906
  24.2491956  60.0440631  32.6020545  25.5177312  60.5125741  31.9214692
  26.6349507  57.9680124  37.1806466  26.1314302  57.9310259  36.3674271
  26.9280113  58.8772867  37.2403122  22.8792392  58.0518854  36.1872647
  23.7445389  57.8561662  35.8278537  22.9469901  57.8229205  37.1142004
  32.4937523  68.3416435  29.6582841  31.7166966  68.0027594  29.2138003
  33.1729004  68.3469058  28.9837806  27.3089552  63.4611172  29.5489449
  27.0039688  63.7757321  30.3999592  28.2619994  63.5392592  29.5916782
  30.7328830  67.8150416  36.3149449  30.0752504  68.5049677  36.4029578
  31.5369229  68.2046848  36.6583435  20.4854712  60.2821062  33.5589014
  21.0598463  60.0596243  32.8262207  21.0725694  60.3509756  34.3117616
  29.5434289  66.1694788  34.3653391  30.0566170  66.8024780  34.8675101
  30.1935513  65.5695984  33.9996751  20.8124299  62.3125523  27.5784900
  19.9761611  62.6500209  27.8994174  20.6729068  62.1774502  26.6412037
  22.7877379  57.1562310  32.2864084  22.1341792  56.8411328  31.6620699
  22.7457853  56.5338051  33.0123907  23.8988584  67.4381606  24.2017376
  22.9915646  67.2070859  24.4008525  24.3959616  66.6419225  24.3891357
  26.0215120  63.6444244  36.6111731  25.1037681  63.8659191  36.4533419
  26.4375263  63.7190554  35.7523439  26.8050167  65.0435660  31.7414412
  27.5521986  65.5557057  31.4321534  27.0741757  64.7219712  32.6018805
  25.0776818  67.5394200  28.7241366  24.1688037  67.2553233  28.8213836
  25.1071901  67.9593279  27.8644673  29.2529005  62.0792776  33.7233201
  28.5151761  61.5670162  34.0543443  29.5055778  61.6393158  32.9116478
  29.3540632  54.8569028  34.3174970  29.6599509  53.9966391  34.0300885
  30.0793237  55.4486648  34.1173964  15.6464988  65.2599715  32.7056568
  15.4489388  64.6669075  31.9807635  15.0911652  64.9551925  33.4232507
  23.6261712  65.1522821  34.8251161  23.6810321  64.1996657  34.7493638
  22.8152914  65.3082260  35.3092460  24.7752905  69.0802944  26.0629444
  24.3372335  68.3638803  25.6035082  25.5163346  69.3079059  25.5014536
  21.5654071  63.7699881  32.5841540  20.7521937  64.0694051  32.9906732
  22.0613066  63.3755570  33.3016022  27.1628283  64.2341705  41.4156434
  27.5177671  64.4613178  42.2750900  27.8100414  64.5660082  40.7933689
  32.8926020  67.3560141  32.1205763  32.7543919  67.5461737  31.1926952
  32.5362239  68.1179524  32.5773814  21.0568146  61.3418236  38.2002775
  21.6967526  61.2006995  37.5025738  20.2245677  61.0552750  37.8241377
  32.9195400  69.4236668  37.1317035  33.3531906  69.3311957  37.9800089
  33.6326980  69.3994169  36.4937051  18.1411214  64.7863748  30.3897520
  17.2108802  64.7248204  30.6067482  18.2368686  64.2639701  29.5934161
  18.0596763  61.3118561  32.9775762  18.3203580  62.2263895  32.8684922
  18.8813935  60.8443004  33.1272375  19.5321688  62.7256318  40.1474586
  20.2044741  62.5173681  39.4987235  18.7051475  62.5278404  39.7079819
  33.7810949  69.4660369  39.6649920  33.9746839  70.3706179  39.9109195
  33.6811567  69.0067788  40.4988505  25.4347260  59.3518259  42.1640247
  24.7875175  60.0508209  42.0704724  26.2048275  59.7854403  42.5316495
  28.8426058  69.6167112  45.2390801  28.6911564  69.3877663  44.3220884
  28.8330737  70.5737713  45.2522146  25.6111394  67.1899024  40.2237067
  26.5403454  67.3410184  40.0506034  25.1902424  67.2783045  39.3685714
  19.9349185  65.9998921  40.9077024  19.7968983  65.2679160  41.5088563
  20.8454109  65.9107822  40.6261211  28.8964133  67.9387326  25.6561502
  28.2793304  67.2134154  25.5594555  28.4280621  68.6996686  25.3128576
  22.5631486  65.7118881  40.3960703  23.2731104  65.0712073  40.3547322
  22.5200794  65.9631776  41.3186884  21.2760420  62.6984099  42.2156343
  20.7397777  62.2474837  42.8677939  20.6877128  62.8330007  41.4726807
  20.6862679  62.1572750  24.7782806  19.8092145  62.0361551  24.4145053
  21.1620432  61.3658828  24.5261695  30.5535672  70.6125818  41.5481262
  29.6662451  70.2751740  41.6707661  31.1234223  69.8808849  41.7850027
  17.0099541  61.8340106  39.3009337  16.9257730  61.2265776  38.5659747
  16.1882248  62.3249125  39.3018834  27.1823255  60.3193670  34.6679532
  27.6791955  59.5663632  34.3480602  26.4110237  60.3557987  34.1022742
  35.0353012  66.0234035  36.3097824  35.0242889  66.9058751  35.9391757
  34.1670392  65.6705586  36.1152361  28.2653036  69.0765357  32.2417956
  27.3309314  69.1966820  32.0722660  28.4429704  68.1737824  31.9777965
  23.7658224  62.4611053  34.3951217  23.3956011  61.9082093  35.0832122
  24.2617316  61.8569186  33.8426217  31.6525587  64.9182676  32.7767990
  32.1186039  65.7510668  32.7028292  32.1033088  64.4527658  33.4813248
  29.7201818  71.2626498  29.7754142  29.9961662  71.1483092  30.6848016
  28.8506317  70.8643982  29.7366315  29.6242250  57.2863263  36.8158891
  28.7105330  57.5167490  36.9841098  30.0535351  57.3701707  37.6672923
  29.3948708  65.4753155  39.3158785  28.7420159  65.7229063  38.6611238
  29.7729088  64.6617293  38.9821262  25.4436281  66.2172966  45.8024822
  24.7676918  66.1167096  46.4727197  26.2663915  66.0612180  46.2660819
  19.1623557  59.8715044  40.6404323  19.2264884  60.7329875  40.2281721
  19.0990678  59.2589045  39.9076681  18.6375830  61.9438176  44.2877357
  19.2647869  61.5615253  44.9014882  17.7803749  61.7252378  44.6533050
  15.4141373  63.7514605  30.2195712  15.7094814  62.8425284  30.1662766
  14.5129408  63.7302345  29.8976714  18.9435620  61.8270602  36.2023261
  18.2222205  62.4406570  36.0630734  19.7328875  62.3628367  36.1239907
  21.7461933  59.1625028  42.4763912  22.2696335  59.4087325  43.2390222
  21.5274266  59.9945063  42.0567050  17.1429214  61.4328703  30.3435037
  16.8141920  60.5526082  30.1610143  17.4968585  61.3776372  31.2311426
  20.2571037  61.7201673  30.7110515  20.5967110  62.2487594  29.9889123
  20.7043158  62.0582079  31.4869081  22.9514478  60.1038723  40.1613583
  22.6111299  59.3046537  40.5634263  22.2453485  60.4040434  39.5890416
  23.6030950  57.1888036  38.6140906  24.4257019  56.7148514  38.4919796
  23.8469014  57.9678520  39.1139592  22.2439185  60.2176294  28.9103808
  22.9647547  60.5957547  28.4067524  21.6204489  60.9365171  29.0138786
  26.3870307  60.9221443  29.8462140  26.6033922  61.8046081  29.5450968
  25.9064375  60.5307657  29.1167782  21.1269529  63.8807157  36.4232885
  20.9814110  64.1947460  37.3157166  20.6494732  64.4992057  35.8703783
  22.9865912  60.8709705  36.4713774  22.9727480  59.9750798  36.1346072
  23.7038340  60.8780368  37.1052060  24.8392042  61.3047045  38.5166902
  24.5809820  62.2264115  38.5151232  24.3077083  60.9077479  39.2067366
  22.3902808  59.7524085  31.7401344  22.5118719  58.8240731  31.9392232
  22.1004850  59.7662771  30.8279660  25.2593998  57.4378995  34.8768064
  25.2815695  57.5018328  33.9220044  25.6762057  56.5983504  35.0708570
  35.6377622  67.1734255  32.9147287  36.0808768  66.4241580  32.5166410
  34.7604133  67.1644391  32.5321019  16.3881213  65.5482397  42.2550703
  15.6462949  65.6965033  42.8415333  16.0673957  65.8090663  41.3917452
  32.6704827  71.1764302  29.9241216  33.1956151  71.5151575  29.1990536
  32.5827179  70.2411317  29.7404351  21.8743887  61.2656082  45.9491277
  21.9232043  62.1418205  45.5669046  22.4166401  60.7233475  45.3762920
  32.4796608  68.6589672  42.5425142  32.5294613  68.4939679  43.4840665
  32.3710531  67.7916931  42.1523023  29.7700370  64.6420600  43.8584449
  30.6710233  64.5027065  43.5668447  29.8448345  64.8075055  44.7982627
  24.1043176  62.0187455  42.7037635  23.2346485  62.3121021  42.4320224
  24.3402656  62.6027900  43.4244899  33.9814805  71.0786613  42.7867164
  33.6899613  71.4416594  43.6230625  33.3686936  70.3653622  42.6080496
  35.1810487  68.6439493  35.3069734  36.0157378  69.0829297  35.4707295
  35.3169616  68.1678146  34.4877980  32.2301993  66.2019228  41.2547222
  32.7056115  66.3946874  40.4466073  31.3067558  66.2578414  41.0090606
  19.1185500  67.3643395  30.8378300  18.8731542  66.4605725  31.0358510
  19.2881414  67.3660546  29.8957778  26.8082209  58.2367071  40.2203056
  27.3264153  58.9728098  39.8949544  26.4537342  58.5431065  41.0549815
  18.3881147  63.0971753  28.3364462  17.6950392  63.1716108  27.6804498
  18.1432899  62.3332096  28.8585979  27.0594804  54.6567354  35.7403952
  27.3396557  53.9890543  36.3664379  27.8445411  54.8496450  35.2278616
  30.9303662  63.0784988  39.4875528  31.8821085  63.1783086  39.5087752
  30.7607112  62.2863257  39.9973612  28.9518041  60.1640571  39.6734929
  28.3567974  60.4445584  38.9781417  28.6667738  60.6534472  40.4451670
  33.4091740  66.2991108  38.6017827  33.3768060  65.3607108  38.7877511
  34.0192363  66.3775144  37.8683652  25.2475071  65.1687161  24.6445031
  26.1934175  65.0393369  24.7133449  24.8689316  64.4301823  25.1214459
  33.5586228  63.0902151  38.6476110  33.0425277  62.3060608  38.4606039
  34.4426177  62.7620868  38.8122630  31.2196955  56.8343167  34.6071923
  31.0221776  56.5258255  35.4915255  31.8296661  57.5604806  34.7369853
  39.2268290  67.3607115  37.7423864  39.9571678  67.0992403  38.3031567
  38.6175235  66.6235836  37.7825932  37.3083587  65.5014977  38.3398315
  36.5816750  65.3670942  37.7314807  36.8930874  65.8091806  39.1455033
  25.1313763  69.2204907  46.1045688  26.0516773  69.3983506  46.2985735
  25.0963346  68.2760952  45.9525388  23.4317988  63.0937137  24.5799916
  22.5249443  62.7970250  24.6562630  23.7093969  62.7966955  23.7134203
  14.3495928  64.4143500  35.0298963  14.0298713  63.5608809  34.7373337
  13.8029356  64.6292079  35.7856930  25.0480054  57.6374027  30.7344158
  24.2380782  57.2921112  31.1099404  25.7364470  57.3281571  31.3231769
  26.9770602  56.7152074  32.3568454  27.5301640  57.1347527  33.0158478
  27.2140688  55.7887822  32.3991410  23.0003701  62.7039147  48.1371218
  22.9000428  63.6533504  48.0683309  22.7825243  62.3757386  47.2647288
  22.2016772  59.9524072  24.7211896  23.0635936  60.2778971  24.9807713
  22.3867117  59.1655568  24.2084961  30.3549409  58.8252599  31.8647119
  29.7748078  59.4837403  31.4825171  30.0885342  58.0029943  31.4534536
  28.8052975  58.2257656  34.0668439  29.3052754  58.3374191  33.2582758
  29.4488583  57.9218709  34.7069247  22.8634971  66.1336286  46.9536280
  22.3802053  66.9336646  47.1600169  22.9495910  66.1444231  46.0003724
  29.1374287  60.9852689  30.9203467  28.2500142  61.2702340  30.7023662
  29.5528276  60.8246452  30.0730744  32.4888823  61.0099210  34.6357806
  33.2649213  61.4995663  34.9082423  31.7636957  61.4357264  35.0929676
  29.1115311  66.5007225  31.1353757  29.0550512  66.9575776  30.2961390
  29.6643653  65.7397910  30.9576600  30.1904198  71.1879893  27.0649947
  31.0249802  70.7561091  26.8827422  30.0288541  71.0161907  27.9926841
  29.8450090  67.6912006  28.4306286  29.7898894  67.5256278  27.4894730
  29.2196145  68.3988039  28.5868476  14.6342605  62.9280071  42.2567708
  15.2801469  62.4179025  42.7454934  14.4259756  63.6648752  42.8311134
  23.1546215  57.1920115  28.0091605  23.1424885  58.1361955  28.1659876
  24.0469637  57.0090261  27.7151066  26.9698335  53.7862892  32.2637541
  26.2030731  53.2321379  32.4094224  27.3809040  53.8584761  33.1251693
  18.9740096  60.0747688  46.3542723  19.8371558  59.7184493  46.5646047
  18.4005507  59.7361583  47.0418127  41.2963589  73.0797805  39.5985919
  40.9646914  73.9493216  39.3747134  40.7009202  72.7634089  40.2779949
  38.3946721  70.9267386  39.2157233  38.0510990  71.8169028  39.1396343
  38.7625683  70.7369044  38.3526818  33.6271134  72.4854228  32.2864084
  32.9735546  72.1703245  31.6620699  33.5851608  71.8629969  33.0123907
  40.1934386  70.1860946  34.3174970  40.4993263  69.3258309  34.0300885
  40.9186991  70.7778566  34.1173964  40.4636004  72.6155181  36.8158891
  39.5499084  72.8459408  36.9841098  40.8929106  72.6993625  37.6672923
  36.0987753  72.7670913  34.8768064  36.1209449  72.8310246  33.9220044
  36.5155812  71.9275422  35.0708570  37.8988558  69.9859272  35.7403952
  38.1790312  69.3182461  36.3664379  38.6839165  70.1788367  35.2278616
  42.0590710  72.1635084  34.6071923  41.8615531  71.8550173  35.4915255
  42.6690415  72.8896723  34.7369853  35.8873808  72.9665944  30.7344158
  35.0774536  72.6213029  31.1099404  36.5758225  72.6573488  31.3231769
  37.8164356  72.0443991  32.3568454  38.3695395  72.4639445  33.0158478
  38.0534443  71.1179739  32.3991410  41.1943163  74.1544516  31.8647119
  40.6141832  74.8129320  31.4825171  40.9279096  73.3321861  31.4534536
  39.6446730  73.5549574  34.0668439  40.1446508  73.6666109  33.2582758
  40.2882338  73.2510627  34.7069247  37.8092089  69.1154810  32.2637541
  37.0424485  68.5613296  32.4094224  38.2202794  69.1876678  33.1251693
   6.3007211  12.7235914  23.8850430   6.9385621  12.6042661  23.1813770
   6.1828054  13.6716758  23.9438383   3.1096917  12.6763342  23.8211955
   2.7715428  12.5604406  22.9332490   3.9786685  12.2754507  23.8012961
   3.5916700  13.8298193  29.7798161   3.5805341  13.4350992  28.9078664
   3.7537339  13.0964266  30.3731932   1.2380168  13.9912154  25.3178704
   1.8343740  13.7668176  24.6035667   1.2955139  13.2496899  25.9204152
   5.8548479  10.4487368  20.9603638   6.6411568  10.0306791  20.6094055
   6.1187183  11.3533460  21.1285287  11.2556906  10.3862601  21.8636617
  11.9882078   9.8161818  22.0974446  10.4996262   9.9984201  22.3043123
   5.2713846  16.2996721  25.7227138   4.9714569  17.2021760  25.6142945
   4.9264906  16.0328904  26.5748291   8.6710990   8.8179261  23.4024576
   7.7627867   8.7494669  23.1083337   8.6198586   9.2951206  24.2306401
   2.7451856  10.2368907  31.3459473   1.9685190  10.7962827  31.3362337
   3.3842419  10.7225690  31.8674343  10.5372636   7.0195699  25.1802450
   9.8947017   7.3128233  24.5342244  10.0327565   6.9048620  25.9855646
   6.4753568  15.1883500  29.5049601   6.8836924  14.7465911  28.7604234
   5.7530829  14.6136128  29.7583794   2.8284638  10.1256107  26.8783158
   3.6745833  10.5495521  27.0217807   2.7683275   9.4689731  27.5721721
   6.7982382  15.7484691  23.2601890   6.1691245  15.9130405  22.5577958
   6.4108044  16.1626301  24.0312854  10.6771614  16.6839129  20.6146254
   9.9922652  17.0638030  20.0643287  10.7615464  17.2934456  21.3478202
   5.9784083   7.7860476  28.5364332   5.7345015   8.5402536  27.9998608
   6.2544014   8.1645823  29.3711579   7.9322546  14.3299088  27.2141598
   8.1439441  14.9730848  26.5375979   7.8852294  13.4961404  26.7463528
   2.3510344  15.4859099  20.5251975   2.8148690  15.7646802  19.7356598
   2.0867142  14.5842544  20.3425066   9.0468374  17.2071043  25.3863955
   9.8685818  16.8051231  25.1046636   9.0430777  17.1039278  26.3380071
   2.8124977  16.7555087  27.5424665   2.8769410  17.2175494  28.3782837
   2.1035901  16.1252452  27.6706975  17.1374367  13.5509792  21.7348926
  16.3838075  12.9817190  21.5792931  17.2721908  13.5172456  22.6819561
   2.5272995  18.4223194  17.4103646   2.3918670  19.2674730  17.8388493
   3.0682807  18.6242472  16.6469579   4.1541471  19.0446761  31.5403988
   3.7105325  18.2583139  31.2224892   4.8158685  19.2325911  30.8747879
   6.2522709  19.3249561  29.5685389   6.2341185  20.1458442  29.0765658
   7.1742629  19.2003636  29.7935530   2.7095763  16.8393690  30.4108897
   3.2424100  16.0781978  30.1808205   2.1809845  16.5467342  31.1533052
  10.8150015  14.6894722  16.3828148  10.0379458  14.3505881  15.9383310
  11.4941496  14.6947345  15.7083113   4.0748476  15.9679683  17.9227709
   3.5469838  15.2332442  17.6100947   3.5735979  16.7454359  17.6767678
   9.0541322  14.1628703  23.0394756   8.3964997  14.8527964  23.1274884
   9.8581721  14.5525135  23.3828742   7.8646781  12.5173076  21.0898697
   8.3778663  13.1503068  21.5920407   8.5148005  11.9174271  20.7242057
   5.1269155  22.4957400  13.8459369   4.4530854  22.7989097  14.4544326
   5.5134977  23.2986480  13.4964826   4.3427612   9.9922531  23.3357038
   3.4250173  10.2137478  23.1778726   4.7587755  10.0668842  22.4768745
   8.6308577  17.4979077  19.2177840   8.1770904  16.6569987  19.2743031
   8.0002544  18.1340476  19.5552620   7.0741516  19.3355574  20.1527658
   7.3664491  19.8960631  19.4340024   7.5840137  19.6284135  20.9080817
   1.9474204  11.5001108  21.5496468   2.0022814  10.5474945  21.4738944
   1.1365406  11.6560547  22.0337766   2.0375142  20.1135925  21.2421111
   1.9951320  20.3396771  20.3129643   2.9537841  19.8799300  21.3906913
   5.4840775  10.5819992  28.1401741   5.8390163  10.8091466  28.9996206
   6.1312907  10.9138369  27.5178996  11.2138512  13.7038428  18.8451070
  11.0756411  13.8940024  17.9172259  10.8574731  14.4657811  19.3019121
  11.2407892  15.7714955  23.8562341  11.6744399  15.6790244  24.7045395
  11.9539473  15.7472456  23.2182357   4.9735787  19.3717049  25.3895442
   5.0272809  19.9407986  26.1573158   4.1050568  19.5418935  25.0249479
  12.1023442  15.8138656  26.3895227  12.2959332  16.7184467  26.6354502
  12.0024060  15.3546075  27.2233812   7.1638550  15.9645399  31.9636107
   7.0124057  15.7355950  31.0466191   7.1543230  16.9216000  31.9767452
   3.9323887  13.5377312  26.9482374   4.8615947  13.6888471  26.7751341
   3.5114917  13.6261332  26.0931020   2.7312218  17.5627976  24.7180911
   2.5923304  17.1946760  25.5906849   1.9426815  18.0775615  24.5464869
   3.3260370  22.6637072  16.0606448   3.5012126  22.1925116  16.8752070
   2.6393158  23.2902839  16.2887709   4.2817434  16.9409579  22.1069749
   3.9467266  16.9010349  23.0027399   3.7821379  16.2754295  21.6340159
   0.8843978  12.0597168  27.1206010   1.5943597  11.4190360  27.0792628
   0.8413286  12.3110063  28.0432191   8.8730757  18.9964521  30.0412589
   8.8143303  18.3123741  29.3743172   9.2750275  19.7383511  29.5893215
   8.8748164  16.9604105  28.2726569   7.9874943  16.6230027  28.3952968
   9.4446715  16.2287136  28.5095334   2.4049318  21.6205558  25.2387812
   2.3319489  22.4260529  25.7507117   1.9626711  21.8197523  24.4135833
   2.1939097  20.8577328  18.7490633   1.4106619  21.3999008  18.8428858
   2.8931842  21.3751307  19.1484875  13.3565505  12.3712323  23.0343130
  13.3455381  13.2537038  22.6637063  12.4882884  12.0183873  22.8397667
   4.8648001  21.5192392  27.3945971   5.5775973  22.1539856  27.3221872
   4.3738030  21.6156258  26.5785972   6.5865528  15.4243644  18.9663262
   5.6521807  15.5445107  18.7967967   6.7642196  14.5216111  18.7023272
   9.9738079  11.2660964  19.5013296  10.4398532  12.0988955  19.4273599
  10.4245580  10.8005945  20.2058555   8.0414310  17.6104785  16.4999448
   8.3174154  17.4961379  17.4093323   7.1718809  17.2122270  16.4611622
   7.7161201  11.8231443  26.0404092   7.0632651  12.0707350  25.3856545
   8.0941580  11.0095581  25.7066569   4.6768374  21.8591136  20.1432262
   4.8590769  21.0412792  20.6060014   5.5001360  22.0758828  19.7057152
   5.0110540  20.7859321  17.4047311   5.5398306  20.2751775  16.7917473
   5.2738760  20.4701851  18.2692844   3.7648774  12.5651254  32.5270129
   3.0889411  12.4645383  33.1972504   4.5876407  12.4090467  32.9906126
   2.5071556  23.8718181  26.7627745   3.0589865  24.0349803  27.5276830
   2.8477750  24.4622619  26.0907770   7.3582431  18.6979439  32.6176399
   7.9022335  19.3109397  32.1231354   6.7769276  19.2559017  33.1343412
   5.6439944  21.8200157  23.7491427   5.5191083  21.0189896  23.2402373
   6.3019035  22.3146350  23.2605397   7.7074852  19.6209177  25.3770977
   6.7605188  19.5014528  25.3049304   8.0557625  18.7331675  25.4597239
   4.7121285  19.4161893  21.5775329   4.5646248  18.4878600  21.7582899
   5.5374779  19.4381984  21.0932405   8.3155407  20.2390452  22.6640202
   9.2401955  20.0333313  22.5264653   8.1470711  19.9906853  23.5729544
   8.1050723  20.7576119  18.0202294   8.2787601  20.1922542  17.2676146
   8.5979615  21.5577014  17.8381783  13.9590115  13.5212542  19.6392593
  14.4021261  12.7719867  19.2411717  13.0816625  13.5122678  19.2566325
   9.0925896  20.0742883  15.1199192   9.7876801  20.6949576  15.3386506
   9.4349046  19.2238235  15.3951570  10.9917319  17.5242589  16.6486523
  11.5168643  17.8629862  15.9235843  10.9039672  16.5889604  16.4649657
   2.6537368  21.4376663  28.7776399   2.9624494  21.1925809  29.6499099
   3.4512850  21.6423301  28.2895269   2.6757980  23.5914572  21.0081776
   2.2362970  23.0990951  21.7014632   3.4266097  23.0487540  20.7673851
  10.8009100  15.0067959  29.2670449  10.8507105  14.8417966  30.2085972
  10.6923024  14.1395218  28.8768330   8.0912863  10.9898887  30.5829756
   8.9922725  10.8505352  30.2913754   8.1660837  11.1553342  31.5227933
  13.5022979  14.9917780  22.0315041  14.3369871  15.4307584  22.1952601
  13.6382108  14.5156434  21.2123287  10.5514485  12.5497515  27.9792529
  11.0268607  12.7425161  27.1711380   9.6280051  12.6056701  27.7335912
   9.2516154   9.4263275  26.2120834  10.2033577   9.5261373  26.2333058
   9.0819605   8.6341544  26.7218919   7.2730534   6.5118858  26.3980235
   6.6780466   6.7923871  25.7026724   6.9880230   7.0012759  27.1696976
   6.4038024  20.4641785  15.1582868   7.3368697  20.3987347  15.3615743
   6.3161237  21.2998052  14.6997400  11.7304232  12.6469395  25.3263134
  11.6980552  11.7085396  25.5122818  12.3404856  12.7253432  24.5928959
  11.8798721   9.4380438  25.3721417  11.3637769   8.6538895  25.1851346
  12.7638669   9.1099155  25.5367937  17.5480782  13.7085402  24.4669171
  18.2784170  13.4470690  25.0276874  16.9387727  12.9714124  24.5071239
  15.6296079  11.8493264  25.0643622  14.9029243  11.7149229  24.4560113
  15.2143366  12.1570093  25.8700340   3.4526255  15.5683194  32.8290995
   4.3729265  15.7461793  33.0231041   3.4175838  14.6239239  32.6770694
   1.1847463  12.4814573  33.6781587   0.7014545  13.2814933  33.8845476
   1.2708402  12.4922518  32.7249031  10.8101315   7.3577497  21.3603113
  11.5861705   7.8473950  21.6327730  10.0849449   7.7835552  21.8174982
  13.2473874   8.0705117  22.4177053  13.8418365   7.8300853  21.7070362
  13.3200458   7.3512247  23.0450590  11.2432609   8.6375244  18.6849183
  10.9869543   8.2371880  19.5157391  10.6185477   9.3519038  18.5599322
  15.5544947  11.3771317  21.1920475  14.9944505  11.4464507  21.9652037
  14.9488450  11.2012302  20.4719971   5.4808489  16.3439205  34.4805156
   6.3499649  16.5179858  34.1191791   5.0015241  17.1633622  34.3580885
   1.4048272  22.2167293  22.8204668   0.4543903  22.2169155  22.7069040
   1.7080758  21.4700028  22.3040703   9.8077487  29.8590736  19.8108846
   9.2442352  29.7680673  19.0425134   9.6929882  29.0390640  20.2911339
   7.3541919  31.3541927  22.6493066   8.1463211  31.0132752  22.2339366
   7.5938569  31.4636903  23.5695220  15.3877046  33.5261704  15.1223311
  14.7365026  34.1115784  14.7357325  16.1821409  34.0567898  15.1818348
   9.3132673  30.6150841  15.5210445  10.0863549  30.0679828  15.3823321
   9.6658072  31.4795090  15.7324907  11.1517716  31.9427223  28.7277345
  10.8607582  32.8472854  28.6124011  11.7874700  31.9843751  29.4421414
  12.0773922  29.3204072  25.3178704  12.6737495  29.0960094  24.6035667
  12.1348894  28.5788817  25.9204152  11.6498951  26.7743507  13.1528895
  11.9024472  26.2525028  12.3912358  10.7123510  26.6109652  13.2555579
  16.6942234  25.7779285  20.9603638  17.4805323  25.3598708  20.6094055
  16.9580938  26.6825377  21.1285287  16.8652311  31.2152136  15.6592295
  16.2298144  31.2886762  16.3713200  16.5349717  31.8045734  14.9811374
  22.0950661  25.7154518  21.8636617  22.8275833  25.1453735  22.0974446
  21.3390016  25.3276119  22.3043123  11.3695240  28.6771613  15.3553270
  11.2531498  28.0016516  16.0234354  11.4797499  28.1903987  14.5385423
  13.7126780  28.1381760  19.0599959  13.3484988  27.6112381  19.7712881
  14.5693896  27.7480229  18.8866445  13.3532267  23.1671660  14.0561308
  13.5206670  24.0351896  14.4231779  13.1629437  23.3298941  13.1322597
  16.1107601  31.6288638  25.7227138  15.8108324  32.5313677  25.6142945
  15.7658660  31.3620822  26.5748291   9.5620082  28.0802435  21.7563843
   8.6370579  27.9478649  21.9641534   9.8104495  28.8596655  22.2533785
  13.3321488  25.6229317  15.0407975  13.2121114  26.0686368  15.8793455
  12.6374077  25.9714635  14.4821513   6.9228893  27.7235709  22.5907632
   7.0521274  27.9770188  23.5047043   6.2426344  28.3163417  22.2712287
  11.0928380  38.3932959  18.6898106  11.0152410  39.3440784  18.7686587
  10.4890024  38.0478831  19.3473032  19.0306555  26.0950790  15.8688309
  19.9424411  26.3278177  15.6936006  18.5216202  26.6787834  15.3063387
  17.3147322  30.5175418  29.5049601  17.7230678  30.0757829  28.7604234
  16.5924584  29.9428046  29.7583794  17.6376137  31.0776609  23.2601890
  17.0084999  31.2422323  22.5577958  17.2501799  31.4918218  24.0312854
  21.5165369  32.0131047  20.6146254  20.8316407  32.3929948  20.0643287
  21.6009218  32.6226373  21.3478202  13.1904099  30.8151017  20.5251975
  13.6542444  31.0938720  19.7356598  12.9260897  29.9134461  20.3425066
  10.0828180  30.3622498  23.4631739  10.6529537  30.7909767  22.8249223
  10.6736292  30.0805083  24.1615924  12.1272985  26.9374169  17.3341540
  12.8297028  27.3895213  17.8015467  11.7953613  26.2957988  17.9621434
   5.8698319  25.1957722  22.6358674   5.0797373  25.4515250  22.1598785
   6.3609566  26.0106060  22.7410715  19.8862128  32.5362961  25.3863955
  20.7079572  32.1343148  25.1046636  19.8824531  32.4331195  26.3380071
   7.8213064  25.5602301  19.5942151   7.0244227  25.6720995  20.1125646
   7.5938656  25.8988953  18.7283041  13.6518732  32.0847004  27.5424665
  13.7163164  32.5467412  28.3782837  12.9429656  31.4544369  27.6706975
   4.1536022  25.4488212  25.0673665   4.4044060  26.3335222  25.3331241
   4.6895570  25.2692814  24.2948757  27.9768121  28.8801709  21.7348926
  27.2231830  28.3109108  21.5792931  28.1115663  28.8464374  22.6819561
  13.3666749  33.7515112  17.4103646  13.2312424  34.5966648  17.8388493
  13.9076562  33.9534389  16.6469579   6.8196147  31.2690550  17.9831571
   7.3320667  32.0633800  18.1337135   7.4718860  30.5716840  17.9165172
   8.6291031  34.3856306  20.0654324   8.8057660  35.3074271  19.8775308
   9.4247865  34.0714725  20.4948704   7.9143388  26.4320938  29.9416487
   7.7996903  25.5306195  30.2423586   7.0587906  26.6784635  29.5901304
  14.9935226  34.3738678  31.5403988  14.5499080  33.5875057  31.2224892
  15.6552439  34.5617829  30.8747879   9.7522347  35.9034480  26.0664666
  10.3029772  35.7751543  25.2941660   8.9133823  36.2029369  25.7159559
  17.0916464  34.6541478  29.5685389  17.0734939  35.4750359  29.0765658
  18.0136384  34.5295553  29.7935530  13.5489518  32.1685608  30.4108897
  14.0817855  31.4073896  30.1808205  13.0203599  31.8759260  31.1533052
  16.7159213  17.2745674  25.9402539  16.3723482  18.1647315  25.8641650
  17.0838176  17.0847331  25.0772124   4.7845064  29.5979204  18.7591141
   5.6220286  30.0076213  18.5424849   4.9623331  28.6578646  18.7291335
  16.6809496  27.2654285  14.4474974  16.1656119  28.0358889  14.6863362
  16.4086804  26.5919421  15.0708036  14.2656607  22.1103986  19.5060213
  13.4098203  21.7210836  19.3265851  14.6783558  22.1895946  18.6459998
  12.0398639  19.7289059  22.9117954  12.9051636  19.5331867  22.5523844
  12.1076148  19.4999410  23.8387311  21.6543770  30.0186639  16.3828148
  20.8773213  29.6797799  15.9383310  22.3335251  30.0239263  15.7083113
  16.4695799  25.1381377  16.2734755  16.1645934  25.4527526  17.1244899
  17.4226241  25.2162797  16.3162088  14.9142231  31.2971600  17.9227709
  14.3863592  30.5624360  17.6100947  14.4129733  32.0746277  17.6767678
  19.8935077  29.4920621  23.0394756  19.2358751  30.1819882  23.1274884
  20.6975476  29.8817053  23.3828742   9.6460958  21.9591266  20.2834321
  10.2204710  21.7366448  19.5507514  10.2331941  22.0279961  21.0362922
  18.7040536  27.8464993  21.0898697  19.2172417  28.4794985  21.5920407
  19.3541759  27.2466189  20.7242057   9.9730545  23.9895728  14.3030206
   9.1367858  24.3270414  14.6239481   9.8335315  23.8544707  13.3657343
  11.9483626  18.8332515  19.0109390  11.2948038  18.5181533  18.3866005
  11.9064100  18.2108256  19.7369213  13.0594831  29.1151810  10.9262682
  12.1521893  28.8841064  11.1253831  13.5565863  28.3189430  11.1136664
  15.9662910  37.8249318  13.8459369  15.2924609  38.1281014  14.4544326
  16.3528732  38.6278398  13.4964826  15.9656414  26.7205865  18.4659718
  16.7128233  27.2327262  18.1566840  16.2348004  26.3989917  19.3264112
  14.2383064  29.2164405  15.4486673  13.3294284  28.9323438  15.5459142
  14.2678148  29.6363484  14.5889979  19.4702332  32.8270995  19.2177840
  19.0164659  31.9861905  19.2743031  18.8396298  33.4632393  19.5552620
  18.4135251  23.7562981  20.4478508  17.6758008  23.2440367  20.7788750
  18.6662025  23.3163362  19.6361784  17.9135271  34.6647492  20.1527658
  18.2058245  35.2252549  19.4340024  18.4233892  34.9576053  20.9080817
  18.5146879  16.5339233  21.0420277  18.8205755  15.6736596  20.7546192
  19.2399483  17.1256853  20.8419271   4.8071235  26.9369919  19.4301875
   4.6095634  26.3439280  18.7052941   4.2517899  26.6322130  20.1477814
  13.9359152  30.7573149  12.7874751  13.4978582  30.0409008  12.3280388
  14.6769593  30.9849264  12.2259843  10.7260318  25.4470086  19.3086847
   9.9128184  25.7464256  19.7152039  11.2219312  25.0525774  20.0261329
  12.8768896  35.4427843  21.2421111  12.8345075  35.6688689  20.3129643
  13.7931595  35.2091217  21.3906913  22.0532267  29.0330346  18.8451070
  21.9150165  29.2231942  17.9172259  21.6968486  29.7949729  19.3019121
  10.9934697  32.3190872  21.0383074  11.7875295  31.8241192  20.8365649
  10.2826389  31.7908735  20.6750780  15.8129541  34.7008967  25.3895442
  15.8666564  35.2699903  26.1573158  14.9444323  34.8710852  25.0249479
   7.3017460  26.4633953  17.1142827   6.3715048  26.4018409  17.3312789
   7.3974932  25.9409906  16.3179468   7.2203009  22.9888766  19.7021069
   7.4809827  23.9034099  19.5930229   8.0420182  22.5213209  19.8517681
   8.6927935  24.4026523  26.8719893   9.3650988  24.1943885  26.2232542
   7.8657721  24.2048609  26.4325125  13.5705973  32.8919894  24.7180911
  13.4317059  32.5238678  25.5906849  12.7820569  33.4067533  24.5464869
  14.1654125  37.9928990  16.0606448  14.3405881  37.5217033  16.8752070
  13.4786913  38.6194756  16.2887709  15.1211188  32.2701496  22.1069749
  14.7861021  32.2302266  23.0027399  14.6215134  31.6046212  21.6340159
   9.0955432  27.6769126  27.6322330   8.9575230  26.9449365  28.2333869
  10.0060355  27.5878026  27.3506518  18.0570380  29.6157531  12.3806809
  17.4399550  28.8904359  12.2839861  17.5886868  30.3766891  12.0373883
   8.7315210  41.1418353  22.8346308   8.9711808  41.7736877  23.5125327
   7.8884407  40.7906393  23.1211667   9.8468926  23.8342955  11.5028113
   8.9698392  23.7131756  11.1390360  10.3226679  23.0429033  11.2507002
   1.3671066  28.6220115  21.5969620   2.0542106  28.3081845  21.0090635
   1.2119194  29.5261479  21.3236872   6.1705788  23.5110311  26.0254644
   6.0863977  22.9035981  25.2905054   5.3488494  24.0019330  26.0264140
  13.2443072  36.9497475  25.2387812  13.1713244  37.7552447  25.7507117
  12.8020465  37.1489441  24.4135833  13.0332852  36.1869245  18.7490633
  12.2500374  36.7290925  18.8428858  13.7325597  36.7043225  19.1484875
  15.7041756  36.8484309  27.3945971  16.4169728  37.4831774  27.3221872
  15.2131784  36.9448175  26.5785972  17.4259282  30.7535562  18.9663262
  16.4915561  30.8737024  18.7967967  17.6035951  29.8508029  18.7023272
  20.8131834  26.5952881  19.5013296  21.2792286  27.4280873  19.4273599
  21.2639334  26.1297863  20.2058555  10.7553669  34.5978753  28.2151541
  11.4563129  35.2315236  28.3680936  10.2848784  34.9393484  27.4547181
  18.8808065  32.9396703  16.4999448  19.1567909  32.8253297  17.4093323
  18.0112564  32.5414187  16.4611622  15.5162129  37.1883053  20.1432262
  15.6984523  36.3704709  20.6060014  16.3395115  37.4050746  19.7057152
  15.8504294  36.1151239  17.4047311  16.3792061  35.6043693  16.7917473
  16.1132514  35.7993769  18.2692844   6.3521387  34.1315108  25.1482644
   6.9374824  33.3858796  25.2810548   6.1546226  34.4419065  26.0319308
   9.2060042  37.1666355  20.1645086   8.5370418  37.6512483  19.6809127
   9.0672912  37.4135576  21.0788465   0.9439042  26.7020708  23.8687087
   0.9823141  26.1684299  24.6624205   0.4379335  26.1755914  23.2498064
  13.3465311  39.2010099  26.7627745  13.8983619  39.3641720  27.5276830
  13.6871504  39.7914537  26.0907770   8.3229804  21.5485249  27.3649630
   8.3871131  22.4100079  26.9527027   8.2596924  20.9359250  26.6321988
   7.7982077  23.6208381  31.0122664   8.4254116  23.2385458  31.6260188
   6.9409996  23.4022583  31.3778356   4.5747619  25.4284810  16.9441019
   4.8701061  24.5195489  16.8908072   3.6735655  25.4072550  16.6222021
  16.4833698  37.1492074  23.7491427  16.3584838  36.3481814  23.2402373
  17.1412789  37.6438268  23.2605397   8.1041866  23.5040807  22.9268567
   7.3828452  24.1176774  22.7876041   8.8935122  24.0398572  22.8485213
  18.5468607  34.9501094  25.3770977  17.5998942  34.8306446  25.3049304
  18.8951380  34.0623592  25.4597239   6.3035461  23.1098908  17.0680344
   5.9748167  22.2296287  16.8855450   6.6574832  23.0546577  17.9556733
  15.5515040  34.7453811  21.5775329  15.4040002  33.8170518  21.7582899
  16.3768533  34.7673901  21.0932405   9.4177284  23.3971878  17.4355821
   9.7573357  23.9257799  16.7134430   9.8649405  23.7352284  18.2114388
  19.1549162  35.5682369  22.6640202  20.0795709  35.3625231  22.5264653
  18.9864465  35.3198770  23.5729544  11.4045431  21.8946499  15.6349114
  12.1253794  22.2727752  15.1312831  10.7810735  22.6135376  15.7384092
  15.5476554  22.5991648  16.5707447  15.7640169  23.4816286  16.2696275
  15.0670621  22.2077862  15.8413089  10.2875776  25.5577361  23.1478191
  10.1420356  25.8717665  24.0402473   9.8100979  26.1762262  22.5949090
  18.9444478  36.0868037  18.0202294  19.1181356  35.5214459  17.2676146
  19.4373369  36.8868932  17.8381783   4.7621438  28.0982706  26.0865852
   4.2174906  28.8742514  26.2186127   5.6400788  28.4453510  25.9284974
  11.5509054  21.4294290  18.4646651  11.6724966  20.5010936  18.6637538
  11.2611097  21.4432976  17.5524966  14.4200245  19.1149200  21.6013371
  14.4421942  19.1788533  20.6465350  14.8368304  18.2753709  21.7953877
  24.7983869  28.8504460  19.6392593  25.2415015  28.1011785  19.2411717
  23.9210379  28.8414596  19.2566325  19.9319650  35.4034801  15.1199192
  20.6270555  36.0241494  15.3386506  20.2742801  34.5530152  15.3951570
   5.5487460  27.2252602  28.9796009   4.8069196  27.3735237  29.5660640
   5.2280204  27.4860868  28.1162759  21.8311074  32.8534507  16.6486523
  22.3562398  33.1921779  15.9235843  21.7433426  31.9181522  16.4649657
  13.4931122  36.7668580  28.7776399  13.8018249  36.5217727  29.6499099
  14.2906604  36.9715219  28.2895269  13.5151734  38.9206490  21.0081776
  13.0756725  38.4282869  21.7014632  14.2659851  38.3779458  20.7673851
   5.9944073  35.1118031  21.0106404   6.8202093  34.8121803  20.6305047
   5.6438125  34.3425653  21.4596193  10.9625606  34.4644499  23.0804077
  10.3405616  33.8015204  22.7806305  11.6330473  34.4905631  22.3977725
   4.1952678  33.0304357  21.9695337   3.3584587  32.6026532  21.7879339
   4.1676324  33.2236801  22.9066129  10.5239113  33.0148422  16.5562538
  10.6727234  33.6983887  15.9029211  11.3305557  32.9953512  17.0711994
   8.2791746  29.0413600  17.5623607   8.0337788  28.1375930  17.7603817
   8.4487661  29.0430750  16.6203085   7.5487394  24.7741958  15.0609768
   6.8556639  24.8486313  14.4049804   7.3039146  24.0102301  15.5831285
  16.2201050  16.3337559  22.4649259  16.5002804  15.6660748  23.0909686
  17.0051657  16.5266655  21.9523923  14.0234519  35.5096553  14.0274285
  13.4508486  36.1286740  13.5744757  14.5967313  36.0595915  14.5614207
  17.2431779  35.7933703  15.1582868  18.1762452  35.7279265  15.3615743
  17.1554992  36.6289970  14.6997400  19.8719795  35.1099573  12.1186815
  19.7933427  34.7759437  13.0122573  20.6929462  35.6021341  12.1178288
  14.4081317  26.8457366  11.3690338  15.3540422  26.7163574  11.4378756
  14.0295562  26.1072027  11.8459766  20.3803202  18.5113372  21.3317230
  20.1828023  18.2028460  22.2160562  20.9902908  19.2375011  21.4615160
  12.5924235  24.7707342  11.3045223  11.6855690  24.4740455  11.3807937
  12.8700216  24.4737160  10.4379509   3.5102175  26.0913705  21.7544270
   3.1904959  25.2379014  21.4618644   2.9635603  26.3062284  22.5102237
   7.2882082  28.8076146  25.4713776   7.5068092  29.7393254  25.4901810
   7.7007856  28.4484121  26.2568580  14.2086300  19.3144232  17.4589464
  13.3987029  18.9691317  17.8344711  14.8970717  19.0051775  18.0477076
  16.1376849  18.3922279  19.0813761  16.6907887  18.8117732  19.7403784
  16.3746935  17.4658027  19.1236717   3.3790435  29.7116617  23.7237391
   2.6853906  29.2970570  23.2107346   4.1263426  29.7537153  23.1270810
  19.5155656  20.5022804  18.5892425  18.9354325  21.1607608  18.2070478
  19.2491588  19.6800148  18.1779843  17.9659222  19.9027861  20.7913746
  18.4659000  20.0144396  19.9828064  18.6094830  19.5988914  21.4314554
   5.2927177  29.6434871  21.6003406   5.2697866  29.7422558  20.6485289
   5.6027814  30.4900021  21.9220572   7.9514555  31.7011026  25.7150020
   8.9057809  31.6694968  25.6479952   7.7527079  31.2401649  26.5300246
   8.5413937  30.2712142  28.2820818   9.3606826  30.7656220  28.3055655
   8.8150745  29.3544110  28.2538386  18.2980534  22.6622894  17.6448774
  17.4106389  22.9472545  17.4268968  18.7134523  22.5016657  16.7976050
  21.6495070  22.6869415  21.3603113  22.4255460  23.1765867  21.6327730
  20.9243204  23.1127469  21.8174982  24.0867628  23.3997034  22.4177053
  24.6812119  23.1592770  21.7070362  24.1594212  22.6804165  23.0450590
   6.3064784  37.2430645  22.7320218   6.1719252  36.4831046  22.1658216
   5.8896846  37.9671545  22.2649007  17.4423747  32.4267569  11.7396794
  18.1459597  32.6317571  12.3554449  16.7186396  32.9944331  12.0045877
  18.2721557  28.1777430  17.8599064  18.2156759  28.6345981  17.0206696
  18.8249900  27.4168115  17.6821907  22.0826363  23.9667162  18.6849183
  21.8263298  23.5663798  19.5157391  21.4579231  24.6810956  18.5599322
  26.3938701  26.7063235  21.1920475  25.8338259  26.7756424  21.9652037
  25.7882205  26.5304220  20.4719971   9.4633910  38.1399962  22.9438661
   9.3466294  39.0845395  22.8417351   8.6426356  37.8373524  23.3324460
  19.3510445  32.8650098  13.7895254  20.1856048  32.4331296  13.6072728
  19.1894787  32.6932112  14.7172148  19.0056337  29.3682211  15.1551593
  18.9505141  29.2026483  14.2140037  18.3802392  30.0758244  15.3113783
   3.7948852  24.6050276  28.9813015   4.4407715  24.0949230  29.4700240
   3.5866003  25.3418957  29.5556440  12.3152462  18.8690320  14.7336911
  12.3031132  19.8132160  14.8905182  13.2075884  18.6860466  14.4396373
  10.4888424  38.7928224  26.1594589  11.3915671  38.8251834  26.4761084
  10.2625794  37.8628675  26.1740925  12.2442026  37.5459211  22.8204668
  11.2937657  37.5461072  22.7069040  12.5474512  36.7991945  22.3040703
  16.1304582  15.4633097  18.9882848  15.3636977  14.9091584  19.1339530
  16.5415287  15.5354966  19.8497000   8.1346343  21.7517893  33.0788029
   8.9977804  21.3954698  33.2891354   7.5611753  21.4131787  33.7663434
  27.9794720  43.3819749  23.8850430  28.6173130  43.2626496  23.1813770
  27.8615563  44.3300593  23.9438383  24.7884426  43.3347177  23.8211955
  24.4502937  43.2188242  22.9332490  25.6574194  42.9338342  23.8012961
  20.6471242  45.1882654  19.8108846  20.0836107  45.0972590  19.0425134
  20.5323637  44.3682558  20.2911339  25.2704209  44.4882029  29.7798161
  25.2592850  44.0934827  28.9078664  25.4324848  43.7548101  30.3731932
  18.1935674  46.6833845  22.6493066  18.9856965  46.3424670  22.2339366
  18.4332324  46.7928820  23.5695220  26.2270800  48.8553621  15.1223311
  25.5758780  49.4407702  14.7357325  27.0215163  49.3859816  15.1818348
  20.1526427  45.9442758  15.5210445  20.9257303  45.3971745  15.3823321
  20.5051826  46.8087008  15.7324907  21.9911470  47.2719141  28.7277345
  21.7001336  48.1764772  28.6124011  22.6268454  47.3135668  29.4421414
  22.9167677  44.6495989  25.3178704  23.5131249  44.4252012  24.6035667
  22.9742648  43.9080735  25.9204152  22.4892705  42.1035425  13.1528895
  22.7418226  41.5816946  12.3912358  21.5517264  41.9401570  13.2555579
  27.5335988  41.1071203  20.9603638  28.3199077  40.6890626  20.6094055
  27.7974692  42.0117295  21.1285287  27.7046065  46.5444053  15.6592295
  27.0691898  46.6178680  16.3713200  27.3743472  47.1337652  14.9811374
  22.2088994  44.0063530  15.3553270  22.0925252  43.3308434  16.0234354
  22.3191254  43.5195904  14.5385423  24.5520535  43.4673678  19.0599959
  24.1878742  42.9404299  19.7712881  25.4087651  43.0772147  18.8866445
  24.1926022  38.4963577  14.0561308  24.3600424  39.3643814  14.4231779
  24.0023191  38.6590859  13.1322597  26.9501355  46.9580556  25.7227138
  26.6502078  47.8605595  25.6142945  26.6052415  46.6912739  26.5748291
  20.4013837  43.4094353  21.7563843  19.4764333  43.2770567  21.9641534
  20.6498250  44.1888572  22.2533785  24.1715243  40.9521235  15.0407975
  24.0514868  41.3978286  15.8793455  23.4767831  41.3006552  14.4821513
  17.7622648  43.0527627  22.5907632  17.8915029  43.3062105  23.5047043
  17.0820099  43.6455335  22.2712287  21.9322135  53.7224877  18.6898106
  21.8546165  54.6732702  18.7686587  21.3283779  53.3770749  19.3473032
  24.4239365  40.8952742  31.3459473  23.6472699  41.4546662  31.3362337
  25.0629928  41.3809525  31.8674343  29.8700309  41.4242708  15.8688309
  30.7818165  41.6570095  15.6936006  29.3609956  42.0079752  15.3063387
  22.6785737  43.7038195  30.9077440  23.4200421  44.2423239  30.6312263
  21.9722722  44.3304484  31.0648992  24.5072147  40.7839943  26.8783158
  25.3533342  41.2079356  27.0217807  24.4470784  40.1273567  27.5721721
  28.4769891  46.4068526  23.2601890  27.8478754  46.5714241  22.5577958
  28.0895553  46.8210136  24.0312854  32.3559123  47.3422964  20.6146254
  31.6710161  47.7221866  20.0643287  32.4402973  47.9518291  21.3478202
  24.0297853  46.1442934  20.5251975  24.4936199  46.4230637  19.7356598
  23.7654651  45.2426379  20.3425066  20.9221934  45.6914416  23.4631739
  21.4923291  46.1201684  22.8249223  21.5130046  45.4097001  24.1615924
  22.9666739  42.2666087  17.3341540  23.6690783  42.7187131  17.8015467
  22.6347368  41.6249906  17.9621434  21.4147101  40.8577843  31.7092750
  20.7845761  41.5394124  31.9428147  21.3083189  40.7460925  30.7645888
  16.7092073  40.5249640  22.6358674  15.9191127  40.7807168  22.1598785
  17.2003321  41.3397977  22.7410715  30.7255883  47.8654879  25.3863955
  31.5473326  47.4635066  25.1046636  30.7218286  47.7623113  26.3380071
  18.6606819  40.8894219  19.5942151  17.8637982  41.0012913  20.1125646
  18.4332411  41.2280871  18.7283041  24.4912486  47.4138922  27.5424665
  24.5556919  47.8759329  28.3782837  23.7823410  46.7836287  27.6706975
  14.9929776  40.7780130  25.0673665  15.2437815  41.6627140  25.3331241
  15.5289325  40.5984731  24.2948757  24.2060504  49.0807029  17.4103646
  24.0706179  49.9258565  17.8388493  24.7470316  49.2826307  16.6469579
  20.6927843  35.1598609  34.0718001  20.2994789  34.6064808  34.7465645
  21.5093984  35.4709188  34.4624518  17.6589901  46.5982468  17.9831571
  18.1714422  47.3925718  18.1337135  18.3112614  45.9008758  17.9165172
  19.4684786  49.7148224  20.0654324  19.6451414  50.6366188  19.8775308
  20.2641619  49.4006643  20.4948704  18.7537142  41.7612856  29.9416487
  18.6390658  40.8598113  30.2423586  17.8981660  42.0076552  29.5901304
  25.8328980  49.7030596  31.5403988  25.3892834  48.9166975  31.2224892
  26.4946194  49.8909746  30.8747879  20.5916101  51.2326398  26.0664666
  21.1423527  51.1043461  25.2941660  19.7527577  51.5321287  25.7159559
  27.9310218  49.9833396  29.5685389  27.9128694  50.8042277  29.0765658
  28.8530138  49.8587471  29.7935530  24.3883272  47.4977525  30.4108897
  24.9211609  46.7365814  30.1808205  23.8597354  47.2051177  31.1533052
  15.6238818  44.9271122  18.7591141  16.4614040  45.3368130  18.5424849
  15.8017086  43.9870564  18.7291335  27.5203250  42.5946202  14.4474974
  27.0049874  43.3650807  14.6863362  27.2480559  41.9211339  15.0708036
  25.1050361  37.4395903  19.5060213  24.2491958  37.0502754  19.3265851
  25.5177313  37.5187864  18.6459998  26.6349508  34.9742247  23.9051772
  26.1314303  34.9372382  23.0919578  26.9280115  35.8834989  23.9648429
  22.8792394  35.0580976  22.9117954  23.7445390  34.8623785  22.5523844
  22.9469903  34.8291328  23.8387311  32.4937524  45.3478557  16.3828148
  31.7166967  45.0089717  15.9383310  33.1729005  45.3531180  15.7083113
  27.3089553  40.4673295  16.2734755  27.0039689  40.7819444  17.1244899
  28.2619995  40.5454714  16.3162088  25.7535985  46.6263518  17.9227709
  25.2257347  45.8916277  17.6100947  25.2523488  47.4038194  17.6767678
  20.4854713  37.2883184  20.2834321  21.0598465  37.0658366  19.5507514
  21.0725695  37.3571879  21.0362922  29.5434290  43.1756911  21.0898697
  30.0566172  43.8086903  21.5920407  30.1935514  42.5758107  20.7242057
  20.8124300  39.3187645  14.3030206  19.9761612  39.6562332  14.6239481
  20.6729070  39.1836625  13.3657343  22.7877380  34.1624433  19.0109390
  22.1341793  33.8473450  18.3866005  22.7457855  33.5400174  19.7369213
  23.8988585  44.4443728  10.9262682  22.9915647  44.2132982  11.1253831
  24.3959617  43.6481347  11.1136664  26.8056664  53.1541235  13.8459369
  26.1318363  53.4572932  14.4544326  27.1922486  53.9570316  13.4964826
  26.0215121  40.6506367  23.3357038  25.1037682  40.8721314  23.1778726
  26.4375264  40.7252677  22.4768745  26.8050169  42.0497782  18.4659718
  27.5521988  42.5619179  18.1566840  27.0741758  41.7281835  19.3264112
  25.0776819  44.5456323  15.4486673  24.1688038  44.2615356  15.5459142
  25.1071903  44.9655402  14.5889979  30.3096086  48.1562913  19.2177840
  29.8558413  47.3153822  19.2743031  29.6790053  48.7924311  19.5552620
  28.7529025  49.9939409  20.1527658  29.0452000  50.5544466  19.4340024
  29.2627646  50.2867970  20.9080817  29.3540633  31.8631151  21.0420277
  29.6599510  31.0028514  20.7546192  30.0793238  32.4548771  20.8419271
  15.6464989  42.2661837  19.4301875  15.4489389  41.6731198  18.7052941
  15.0911653  41.9614047  20.1477814  23.6261713  42.1584944  21.5496468
  23.6810323  41.2058780  21.4738944  22.8152915  42.3144383  22.0337766
  24.7752907  46.0865067  12.7874751  24.3372337  45.3700926  12.3280388
  25.5163347  46.3141181  12.2259843  21.5654073  40.7762003  19.3086847
  20.7521938  41.0756174  19.7152039  22.0613067  40.3817692  20.0261329
  23.7162651  50.7719760  21.2421111  23.6738829  50.9980607  20.3129643
  24.6325349  50.5383135  21.3906913  21.0568148  38.3480359  24.9248082
  21.6967527  38.2069118  24.2271045  20.2245678  38.0614872  24.5486684
  21.8328451  47.6482789  21.0383074  22.6269050  47.1533109  20.8365649
  21.1220144  47.1200652  20.6750780  26.6523296  50.0300885  25.3895442
  26.7060318  50.5991821  26.1573158  25.7838077  50.2002770  25.0249479
  18.1411215  41.7925871  17.1142827  17.2108803  41.7310327  17.3312789
  18.2368687  41.2701824  16.3179468  18.0596764  38.3180684  19.7021069
  18.3203581  39.2326017  19.5930229  18.8813936  37.8505126  19.8517681
  19.5321689  39.7318441  26.8719893  20.2044743  39.5235803  26.2232542
  18.7051476  39.5340527  26.4325125  28.8426059  46.6229234  31.9636107
  28.6911566  46.3939786  31.0466191  28.8330739  47.5799836  31.9767452
  25.6111396  44.1961147  26.9482374  26.5403456  44.3472306  26.7751341
  25.1902426  44.2845168  26.0931020  24.4099727  48.2211811  24.7180911
  24.2710813  47.8530596  25.5906849  23.6214324  48.7359451  24.5464869
  25.0047879  53.3220908  16.0606448  25.1799635  52.8508951  16.8752070
  24.3180667  53.9486674  16.2887709  25.9604943  47.5993414  22.1069749
  25.6254775  47.5594184  23.0027399  25.4608888  46.9338130  21.6340159
  19.9349187  43.0061044  27.6322330  19.7968984  42.2741283  28.2333869
  20.8454110  42.9169944  27.3506518  28.8964134  44.9449448  12.3806809
  28.2793305  44.2196276  12.2839861  28.4280623  45.7058809  12.0373883
  22.5631487  42.7181003  27.1206010  23.2731106  42.0774196  27.0792628
  22.5200795  42.9693898  28.0432191  30.5518266  49.6548357  30.0412589
  30.4930812  48.9707577  29.3743172  30.9537784  50.3967347  29.5893215
  21.2760421  39.7046221  28.9401649  20.7397778  39.2536960  29.5923246
  20.6877130  39.8392130  28.1972114  19.5708965  56.4710271  22.8346308
  19.8105563  57.1028795  23.5125327  18.7278161  56.1198311  23.1211667
  20.6862680  39.1634873  11.5028113  19.8092146  39.0423673  11.1390360
  21.1620433  38.3720951  11.2507002  12.2064820  43.9512032  21.5969620
  12.8935860  43.6373762  21.0090635  12.0512949  44.8553397  21.3236872
  17.0099542  38.8402229  26.0254644  16.9257731  38.2327898  25.2905054
  16.1882249  39.3311247  26.0264140  24.0836827  52.2789393  25.2387812
  24.0106998  53.0844364  25.7507117  23.6414220  52.4781359  24.4135833
  23.8726606  51.5161163  18.7490633  23.0894128  52.0582843  18.8428858
  24.5719351  52.0335143  19.1484875  26.5435510  52.1776227  27.3945971
  27.2563482  52.8123692  27.3221872  26.0525539  52.2740093  26.5785972
  28.2653037  46.0827480  18.9663262  27.3309316  46.2028942  18.7967967
  28.4429705  45.1799946  18.7023272  23.7658225  39.4673175  21.1196523
  23.3956013  38.9144216  21.8077429  24.2617317  38.8631309  20.5671524
  31.6525588  41.9244799  19.5013296  32.1186041  42.7572791  19.4273599
  32.1033089  41.4589781  20.2058555  21.5947424  49.9270670  28.2151541
  22.2956883  50.5607153  28.3680936  21.1242539  50.2685402  27.4547181
  29.7201819  48.2688620  16.4999448  29.9961663  48.1545215  17.4093323
  28.8506318  47.8706105  16.4611622  26.3555883  52.5174971  20.1432262
  26.5378278  51.6996627  20.6060014  27.1788869  52.7342663  19.7057152
  26.6898049  51.4443156  17.4047311  27.2185815  50.9335611  16.7917473
  26.9526269  51.1285686  18.2692844  25.4436283  43.2235089  32.5270129
  24.7676920  43.1229218  33.1972504  26.2663916  43.0674303  32.9906126
  17.1915142  49.4607025  25.1482644  17.7768578  48.7150713  25.2810548
  16.9939980  49.7710982  26.0319308  20.0453797  52.4958273  20.1645086
  19.3764172  52.9804401  19.6809127  19.9066667  52.7427493  21.0788465
  11.7832796  42.0312626  23.8687087  11.8216896  41.4976216  24.6624205
  11.2773089  41.5047831  23.2498064  24.1859065  54.5302016  26.7627745
  24.7377373  54.6933638  27.5276830  24.5265259  55.1206454  26.0907770
  19.1623559  36.8777166  27.3649630  19.2264885  37.7391997  26.9527027
  19.0990679  36.2651168  26.6321988  18.6375831  38.9500299  31.0122664
  19.2647870  38.5677376  31.6260188  17.7803750  38.7314501  31.3778356
  29.0369940  49.3563274  32.6176399  29.5809844  49.9693232  32.1231354
  28.4556785  49.9142852  33.1343412  15.4141374  40.7576728  16.9441019
  15.7094815  39.8487406  16.8908072  14.5129410  40.7364467  16.6222021
  27.3227453  52.4783992  23.7491427  27.1978592  51.6773732  23.2402373
  27.9806544  52.9730185  23.2605397  18.9435621  38.8332724  22.9268567
  18.2222207  39.4468692  22.7876041  19.7328877  39.3690489  22.8485213
  29.3862361  50.2793012  25.3770977  28.4392697  50.1598363  25.3049304
  29.7345134  49.3915510  25.4597239  17.1429216  38.4390826  17.0680344
  16.8141922  37.5588204  16.8855450  17.4968586  38.3838494  17.9556733
  26.3908794  50.0745728  21.5775329  26.2433757  49.1462436  21.7582899
  27.2162288  50.0965819  21.0932405  20.2571039  38.7263795  17.4355821
  20.5967111  39.2549717  16.7134430  20.7043159  39.0644201  18.2114388
  29.9942916  50.8974287  22.6640202  30.9189464  50.6917148  22.5264653
  29.8258220  50.6490688  23.5729544  22.9514480  37.1100846  26.8858890
  22.6111300  36.3108659  27.2879569  22.2453486  37.4102557  26.3135723
  23.6030951  34.1950158  25.3386213  24.4257021  33.7210637  25.2165103
  23.8469015  34.9740642  25.8384899  22.2439186  37.2238417  15.6349114
  22.9647548  37.6019670  15.1312831  21.6204490  37.9427294  15.7384092
  26.3870309  37.9283566  16.5707447  26.6033923  38.8108204  16.2696275
  25.9064376  37.5369779  15.8413089  21.1269530  40.8869279  23.1478191
  20.9814111  41.2009582  24.0402473  20.6494734  41.5054179  22.5949090
  22.9865913  37.8771827  23.1959081  22.9727482  36.9812920  22.8591379
  23.7038341  37.8842491  23.8297367  24.8392044  38.3109167  25.2412208
  24.5809822  39.2326238  25.2396539  24.3077084  37.9139602  25.9312672
  29.7838232  51.4159954  18.0202294  29.9575110  50.8506377  17.2676146
  30.2767124  52.2160849  17.8381783  15.6015192  43.4274623  26.0865852
  15.0568660  44.2034431  26.2186127  16.4794542  43.7745428  25.9284974
  22.3902809  36.7586207  18.4646651  22.5118720  35.8302854  18.6637538
  22.1004851  36.7724893  17.5524966  25.2593999  34.4441118  21.6013371
  25.2815696  34.5080451  20.6465350  25.6762058  33.6045626  21.7953877
  30.7713405  50.7326719  15.1199192  31.4664310  51.3533412  15.3386506
  31.1136555  49.8822070  15.3951570  16.3881214  42.5544520  28.9796009
  15.6462950  42.7027155  29.5660640  16.0673958  42.8152785  28.1162759
  32.6704828  48.1826424  16.6486523  33.1956152  48.5213697  15.9235843
  32.5827181  47.2473440  16.4649657  24.3324877  52.0960498  28.7776399
  24.6412003  51.8509645  29.6499099  25.1300359  52.3007136  28.2895269
  24.3545489  54.2498408  21.0081776  23.9150479  53.7574786  21.7014632
  25.1053606  53.7071375  20.7673851  16.8337828  50.4409948  21.0106404
  17.6595848  50.1413720  20.6305047  16.4831880  49.6717571  21.4596193
  21.8019361  49.7936417  23.0804077  21.1799370  49.1307122  22.7806305
  22.4724228  49.8197549  22.3977725  15.0346433  48.3596275  21.9695337
  14.1978341  47.9318449  21.7879339  15.0070078  48.5528718  22.9066129
  21.8743888  38.2718205  32.6736583  21.9232044  39.1480328  32.2914353
  22.4166403  37.7295598  32.1008227  21.3632868  48.3440340  16.5562538
  21.5120988  49.0275804  15.9029211  22.1699311  48.3245430  17.0711994
  19.1185501  44.3705518  17.5623607  18.8731543  43.4667848  17.7603817
  19.2881415  44.3722668  16.6203085  18.3881148  40.1033875  15.0609768
  17.6950393  40.1778230  14.4049804  18.1432900  39.3394219  15.5831285
  27.0594805  31.6629477  22.4649259  27.3396559  30.9952666  23.0909686
  27.8445412  31.8558572  21.9523923  24.8628273  50.8388470  14.0274285
  24.2902240  51.4578658  13.5744757  25.4361067  51.3887832  14.5614207
  28.0825533  51.1225621  15.1582868  29.0156206  51.0571182  15.3615743
  27.9948746  51.9581887  14.6997400  30.7113550  50.4391491  12.1186815
  30.6327181  50.1051355  13.0122573  31.5323217  50.9313259  12.1178288
  25.2475072  42.1749283  11.3690338  26.1934177  42.0455491  11.4378756
  24.8689317  41.4363945  11.8459766  25.1313764  46.2267029  32.8290995
  26.0516774  46.4045628  33.0231041  25.0963347  45.2823075  32.6770694
  23.4317989  40.0999260  11.3045223  22.5249444  39.8032372  11.3807937
  23.7093970  39.8029078  10.4379509  14.3495929  41.4205623  21.7544270
  14.0298714  40.5670931  21.4618644  13.8029358  41.6354201  22.5102237
  18.1275837  44.1368064  25.4713776  18.3461847  45.0685172  25.4901810
  18.5401611  43.7776038  26.2568580  25.0480055  34.6436149  17.4589464
  24.2380783  34.2983234  17.8344711  25.7364472  34.3343693  18.0477076
  26.9770603  33.7214196  19.0813761  27.5301642  34.1409650  19.7403784
  27.2140689  32.7949944  19.1236717  23.0003702  39.7101270  34.8616525
  22.9000429  40.6595627  34.7928616  22.7825244  39.3819509  33.9892595
  22.2016774  36.9586195  11.4457202  23.0635938  37.2841093  11.7053020
  22.3867118  36.1717691  10.9330268  14.2184189  45.0408535  23.7237391
  13.5247661  44.6262487  23.2107346  14.9657180  45.0829071  23.1270810
  22.8634972  43.1398409  33.6781587  22.3802054  43.9398769  33.8845476
  22.9495911  43.1506354  32.7249031  16.1320932  44.9726788  21.6003406
  16.1091620  45.0714476  20.6485289  16.4421568  45.8191939  21.9220572
  18.7908310  47.0302943  25.7150020  19.7451563  46.9986886  25.6479952
  18.5920833  46.5693567  26.5300246  19.3807692  45.6004059  28.2820818
  20.2000581  46.0948138  28.3055655  19.6544500  44.6836028  28.2538386
  29.1374288  37.9914812  17.6448774  28.2500143  38.2764462  17.4268968
  29.5528277  37.8308575  16.7976050  17.1458539  52.5722563  22.7320218
  17.0113007  51.8122964  22.1658216  16.7290601  53.2963463  22.2649007
  28.2817502  47.7559486  11.7396794  28.9853352  47.9609489  12.3554449
  27.5580150  48.3236248  12.0045877  29.1115312  43.5069348  17.8599064
  29.0550513  43.9637899  17.0206696  29.6643654  42.7460032  17.6821907
  32.9220118  39.2959080  18.6849183  32.6657052  38.8955715  19.5157391
  32.2972986  40.0102873  18.5599322  20.3027665  53.4691880  22.9438661
  20.1860049  54.4137312  22.8417351  19.4820111  53.1665441  23.3324460
  30.1904199  48.1942016  13.7895254  31.0249803  47.7623214  13.6072728
  30.0288542  48.0224029  14.7172148  29.8450091  44.6974129  15.1551593
  29.7898895  44.5318400  14.2140037  29.2196147  45.4050162  15.3113783
  14.6342606  39.9342193  28.9813015  15.2801470  39.4241147  29.4700240
  14.4259757  40.6710875  29.5556440  27.1595998  47.0023041  34.4805156
  28.0287158  47.1763693  34.1191791  26.6802750  47.8217458  34.3580885
  23.1546217  34.1982238  14.7336911  23.1424887  35.1424078  14.8905182
  24.0469639  34.0152383  14.4396373  21.3282179  54.1220142  26.1594589
  22.2309425  54.1543752  26.4761084  21.1019549  53.1920593  26.1740925
  23.0835781  52.8751128  22.8204668  22.1331412  52.8752990  22.7069040
  23.3868267  52.1283863  22.3040703  26.9698336  30.7925015  18.9882848
  26.2030732  30.2383501  19.1339530  27.3809041  30.8646883  19.8497000
  18.9740097  37.0809810  33.0788029  19.8371559  36.7246615  33.2891354
  18.4005508  36.7423705  33.7663434  31.4864996  60.5174571  19.8108846
  30.9229861  60.4264508  19.0425134  31.3717391  59.6974476  20.2911339
  29.0329428  62.0125763  22.6493066  29.8250720  61.6716587  22.2339366
  29.2726078  62.1220738  23.5695220  37.0664555  64.1845539  15.1223311
  36.4152535  64.7699619  14.7357325  37.8608918  64.7151734  15.1818348
  30.9920182  61.2734676  15.5210445  31.7651058  60.7263663  15.3823321
  31.3445581  62.1378925  15.7324907  33.7561431  59.9787907  25.3178704
  34.3525004  59.7543929  24.6035667  33.8136403  59.2372652  25.9204152
  33.3286460  57.4327342  13.1528895  33.5811980  56.9108863  12.3912358
  32.3911019  57.2693488  13.2555579  38.5439820  61.8735971  15.6592295
  37.9085653  61.9470597  16.3713200  38.2137226  62.4629570  14.9811374
  33.0482749  59.3355448  15.3553270  32.9319007  58.6600352  16.0234354
  33.1585008  58.8487822  14.5385423  35.3914289  58.7965595  19.0599959
  35.0272497  58.2696216  19.7712881  36.2481405  58.4064064  18.8866445
  35.0319776  53.8255495  14.0561308  35.1994179  54.6935731  14.4231779
  34.8416946  53.9882777  13.1322597  31.2407591  58.7386271  21.7563843
  30.3158088  58.6062485  21.9641534  31.4892004  59.5180490  22.2533785
  35.0108997  56.2813152  15.0407975  34.8908623  56.7270203  15.8793455
  34.3161586  56.6298470  14.4821513  28.6016402  58.3819544  22.5907632
  28.7308783  58.6354023  23.5047043  27.9213853  58.9747252  22.2712287
  32.7715889  69.0516794  18.6898106  32.6939919  70.0024619  18.7686587
  32.1677533  68.7062667  19.3473032  40.7094063  56.7534626  15.8688309
  41.6211920  56.9862012  15.6936006  40.2003711  57.3371670  15.3063387
  33.5179492  59.0330113  30.9077440  34.2594176  59.5715157  30.6312263
  32.8116477  59.6596402  31.0648992  43.1952878  62.6714882  20.6146254
  42.5103916  63.0513783  20.0643287  43.2796727  63.2810209  21.3478202
  34.8691608  61.4734852  20.5251975  35.3329953  61.7522555  19.7356598
  34.6048406  60.5718297  20.3425066  31.7615689  61.0206334  23.4631739
  32.3317046  61.4493602  22.8249223  32.3523801  60.7388918  24.1615924
  33.8060494  57.5958005  17.3341540  34.5084537  58.0479048  17.8015467
  33.4741122  56.9541823  17.9621434  32.2540855  56.1869761  31.7092750
  31.6239516  56.8686042  31.9428147  32.1476943  56.0752843  30.7645888
  27.5485828  55.8541557  22.6358674  26.7584882  56.1099086  22.1598785
  28.0397075  56.6689895  22.7410715  29.5000573  56.2186136  19.5942151
  28.7031736  56.3304831  20.1125646  29.2726165  56.5572789  18.7283041
  25.8323531  56.1072048  25.0673665  26.0831569  56.9919058  25.3331241
  26.3683079  55.9276649  24.2948757  49.6555630  59.5385545  21.7348926
  48.9019339  58.9692943  21.5792931  49.7903172  59.5048209  22.6819561
  35.0454258  64.4098947  17.4103646  34.9099933  65.2550483  17.8388493
  35.5864071  64.6118225  16.6469579  31.5321598  50.4890527  34.0718001
  31.1388544  49.9356726  34.7465645  32.3487738  50.8001105  34.4624518
  28.4983656  61.9274385  17.9831571  29.0108176  62.7217635  18.1337135
  29.1506369  61.2300676  17.9165172  30.3078540  65.0440141  20.0654324
  30.4845169  65.9658106  19.8775308  31.1035374  64.7298561  20.4948704
  29.5930897  57.0904773  29.9416487  29.4784412  56.1890031  30.2423586
  28.7375415  57.3368470  29.5901304  31.4309856  66.5618315  26.0664666
  31.9817281  66.4335379  25.2941660  30.5921332  66.8613204  25.7159559
  26.4632573  60.2563039  18.7591141  27.3007795  60.6660048  18.5424849
  26.6410840  59.3162482  18.7291335  38.3597005  57.9238120  14.4474974
  37.8443628  58.6942725  14.6863362  38.0874313  57.2503256  15.0708036
  35.9444116  52.7687821  19.5060213  35.0885712  52.3794671  19.3265851
  36.3571067  52.8479782  18.6459998  33.7186148  50.3872894  22.9117954
  34.5839145  50.1915703  22.5523844  33.7863657  50.1583246  23.8387311
  43.3331279  60.6770475  16.3828148  42.5560722  60.3381634  15.9383310
  44.0122760  60.6823098  15.7083113  38.1483308  55.7965212  16.2734755
  37.8433443  56.1111361  17.1244899  39.1013750  55.8746632  16.3162088
  36.5929740  61.9555436  17.9227709  36.0651101  61.2208195  17.6100947
  36.0917242  62.7330112  17.6767678  31.3248467  52.6175102  20.2834321
  31.8992219  52.3950283  19.5507514  31.9119450  52.6863796  21.0362922
  31.6518054  54.6479563  14.3030206  30.8155367  54.9854249  14.6239481
  31.5122824  54.5128543  13.3657343  33.6271135  49.4916351  19.0109390
  32.9735547  49.1765368  18.3866005  33.5851609  48.8692091  19.7369213
  34.7382340  59.7735646  10.9262682  33.8309402  59.5424899  11.1253831
  35.2353372  58.9773265  11.1136664  37.6450419  68.4833153  13.8459369
  36.9712117  68.7864850  14.4544326  38.0316241  69.2862233  13.4964826
  35.9170573  59.8748241  15.4486673  35.0081793  59.5907273  15.5459142
  35.9465657  60.2947319  14.5889979  41.1489841  63.4854830  19.2177840
  40.6952168  62.6445740  19.2743031  40.5183807  64.1216229  19.5552620
  39.5922780  65.3231327  20.1527658  39.8845754  65.8836384  19.4340024
  40.1021401  65.6159888  20.9080817  26.4858744  57.5953755  19.4301875
  26.2883143  57.0023116  18.7052941  25.9305408  57.2905965  20.1477814
  35.6146661  61.4156984  12.7874751  35.1766091  60.6992843  12.3280388
  36.3557102  61.6433099  12.2259843  32.4047827  56.1053921  19.3086847
  31.5915693  56.4048092  19.7152039  32.9006821  55.7109610  20.0261329
  34.5556405  66.1011678  21.2421111  34.5132584  66.3272524  20.3129643
  35.4719104  65.8675053  21.3906913  43.7319776  59.6914181  18.8451070
  43.5937674  59.8815777  17.9172259  43.3755995  60.4533564  19.3019121
  31.8961902  53.6772277  24.9248082  32.5361281  53.5361036  24.2271045
  31.0639433  53.3906790  24.5486684  32.6722206  62.9774707  21.0383074
  33.4662804  62.4825027  20.8365649  31.9613898  62.4492570  20.6750780
  37.4917050  65.3592803  25.3895442  37.5454073  65.9283739  26.1573158
  36.6231832  65.5294688  25.0249479  28.9804969  57.1217789  17.1142827
  28.0502557  57.0602244  17.3312789  29.0762441  56.5993741  16.3179468
  28.8990518  53.6472602  19.7021069  29.1597336  54.5617935  19.5930229
  29.7207691  53.1797044  19.8517681  30.3715444  55.0610359  26.8719893
  31.0438497  54.8527721  26.2232542  29.5445230  54.8632445  26.4325125
  35.2493482  63.5503729  24.7180911  35.1104568  63.1822513  25.5906849
  34.4608078  64.0651368  24.5464869  35.8441634  68.6512825  16.0606448
  36.0193390  68.1800869  16.8752070  35.1574422  69.2778592  16.2887709
  36.7998697  62.9285332  22.1069749  36.4648530  62.8886102  23.0027399
  36.3002643  62.2630048  21.6340159  30.7742941  58.3352962  27.6322330
  30.6362739  57.6033201  28.2333869  31.6847864  58.2461862  27.3506518
  39.7357889  60.2741366  12.3806809  39.1187059  59.5488194  12.2839861
  39.2674377  61.0350726  12.0373883  32.1154176  55.0338139  28.9401649
  31.5791533  54.5828877  29.5923246  31.5270884  55.1684048  28.1972114
  31.5256435  54.4926790  11.5028113  30.6485901  54.3715591  11.1390360
  32.0014188  53.7012869  11.2507002  23.0458575  59.2803950  21.5969620
  23.7329615  58.9665680  21.0090635  22.8906703  60.1845315  21.3236872
  27.8493297  54.1694147  26.0254644  27.7651486  53.5619816  25.2905054
  27.0276003  54.6603165  26.0264140  34.9230581  67.6081311  25.2387812
  34.8500752  68.4136282  25.7507117  34.4807974  67.8073276  24.4135833
  34.7120361  66.8453081  18.7490633  33.9287883  67.3874761  18.8428858
  35.4113106  67.3627060  19.1484875  45.8746768  58.3588076  23.0343130
  45.8636644  59.2412791  22.6637063  45.0064148  58.0059626  22.8397667
  37.3829265  67.5068145  27.3945971  38.0957237  68.1415609  27.3221872
  36.8919293  67.6032011  26.5785972  39.1046791  61.4119397  18.9663262
  38.1703070  61.5320860  18.7967967  39.2823460  60.5091864  18.7023272
  32.4341178  65.2562588  28.2151541  33.1350638  65.8899071  28.3680936
  31.9636293  65.5977320  27.4547181  40.5595574  63.5980538  16.4999448
  40.8355418  63.4837132  17.4093323  39.6900073  63.1998023  16.4611622
  37.1949638  67.8466889  20.1432262  37.3772032  67.0288545  20.6060014
  38.0182624  68.0634581  19.7057152  37.5291803  66.7735074  17.4047311
  38.0579570  66.2627528  16.7917473  37.7920023  66.4577604  18.2692844
  28.0308896  64.7898943  25.1482644  28.6162333  64.0442631  25.2810548
  27.8333735  65.1002900  26.0319308  30.8847551  67.8250191  20.1645086
  30.2157927  68.3096318  19.6809127  30.7460421  68.0719411  21.0788465
  22.6226551  57.3604543  23.8687087  22.6610650  56.8268134  24.6624205
  22.1166844  56.8339749  23.2498064  35.0252820  69.8593934  26.7627745
  35.5771128  70.0225556  27.5276830  35.3659013  70.4498372  26.0907770
  30.0017313  52.2069084  27.3649630  30.0658640  53.0683915  26.9527027
  29.9384433  51.5943086  26.6321988  29.4769586  54.2792216  31.0122664
  30.1041625  53.8969294  31.6260188  28.6197505  54.0606418  31.3778356
  26.2535128  56.0868646  16.9441019  26.5488570  55.1779324  16.8908072
  25.3523164  56.0656385  16.6222021  38.1621207  67.8075910  23.7491427
  38.0372347  67.0065649  23.2402373  38.8200298  68.3022103  23.2605397
  29.7829375  54.1624642  22.9268567  29.0615961  54.7760610  22.7876041
  30.5722631  54.6982407  22.8485213  40.2256116  65.6084930  25.3770977
  39.2786451  65.4890281  25.3049304  40.5738889  64.7207428  25.4597239
  27.9822970  53.7682743  17.0680344  27.6535676  52.8880122  16.8855450
  28.3362341  53.7130412  17.9556733  37.2302549  65.4037646  21.5775329
  37.0827511  64.4754353  21.7582899  38.0556042  65.4257737  21.0932405
  31.0964793  54.0555713  17.4355821  31.4360866  54.5841634  16.7134430
  31.5436914  54.3936119  18.2114388  40.8336671  66.2266205  22.6640202
  41.7583218  66.0209066  22.5264653  40.6651974  65.9782606  23.5729544
  33.0832940  52.5530335  15.6349114  33.8041303  52.9311587  15.1312831
  32.4598244  53.2719211  15.7384092  37.2264063  53.2575484  16.5707447
  37.4427678  54.1400121  16.2696275  36.7458130  52.8661697  15.8413089
  31.9663285  56.2161197  23.1478191  31.8207865  56.5301500  24.0402473
  31.4888488  56.8346097  22.5949090  33.8259667  53.2063745  23.1959081
  33.8121236  52.3104838  22.8591379  34.5432096  53.2134409  23.8297367
  40.6231987  66.7451872  18.0202294  40.7968864  66.1798295  17.2676146
  41.1160878  67.5452767  17.8381783  26.4408947  58.7566541  26.0865852
  25.8962415  59.5326349  26.2186127  27.3188297  59.1037346  25.9284974
  33.2296563  52.0878125  18.4646651  33.3512475  51.1594771  18.6637538
  32.9398606  52.1016811  17.5524966  36.0987754  49.7733035  21.6013371
  36.1209451  49.8372369  20.6465350  36.5155813  48.9337544  21.7953877
  46.4771378  59.5088295  19.6392593  46.9202524  58.7595620  19.2411717
  45.5997888  59.4998431  19.2566325  41.6107159  66.0618637  15.1199192
  42.3058064  66.6825329  15.3386506  41.9530310  65.2113988  15.3951570
  27.2274969  57.8836437  28.9796009  26.4856705  58.0319073  29.5660640
  26.9067713  58.1444703  28.1162759  43.5098583  63.5118342  16.6486523
  44.0349907  63.8505615  15.9235843  43.4220935  62.5765357  16.4649657
  35.1718631  67.4252416  28.7776399  35.4805758  67.1801562  29.6499099
  35.9694113  67.6299054  28.2895269  35.1939243  69.5790325  21.0081776
  34.7544234  69.0866704  21.7014632  35.9447360  69.0363293  20.7673851
  27.6731582  65.7701866  21.0106404  28.4989602  65.4705638  20.6305047
  27.3225634  65.0009489  21.4596193  32.6413115  65.1228334  23.0804077
  32.0193125  64.4599039  22.7806305  33.3117982  65.1489466  22.3977725
  25.8740187  63.6888193  21.9695337  25.0372096  63.2610367  21.7879339
  25.8463833  63.8820636  22.9066129  32.7137643  53.6010122  32.6736583
  32.7625798  54.4772245  32.2914353  33.2560157  53.0587515  32.1008227
  32.2026622  63.6732258  16.5562538  32.3514743  64.3567722  15.9029211
  33.0093066  63.6537348  17.0711994  46.0204243  60.9793533  22.0315041
  46.8551134  61.4183337  22.1952601  46.1563372  60.5032187  21.2123287
  29.9579255  59.6997435  17.5623607  29.7125297  58.7959765  17.7603817
  30.1275170  59.7014586  16.6203085  29.2274903  55.4325793  15.0609768
  28.5344148  55.5070148  14.4049804  28.9826655  54.6686137  15.5831285
  35.7022028  66.1680388  14.0274285  35.1295995  66.7870575  13.5744757
  36.2754822  66.7179750  14.5614207  38.9219288  66.4517538  15.1582868
  39.8549961  66.3863100  15.3615743  38.8342501  67.2873805  14.6997400
  36.0868826  57.5041201  11.3690338  37.0327931  57.3747409  11.4378756
  35.7083071  56.7655863  11.8459766  42.0590711  49.1697207  21.3317230
  41.8615532  48.8612295  22.2160562  42.6690417  49.8958846  21.4615160
  50.0662045  59.6961155  24.4669171  50.7965434  59.4346443  25.0276874
  49.4568991  58.9589877  24.5071239  48.1477343  57.8369017  25.0643622
  47.4210506  57.7024982  24.4560113  47.7324629  58.1445846  25.8700340
  34.2711744  55.4291177  11.3045223  33.3643199  55.1324290  11.3807937
  34.5487725  55.1320995  10.4379509  25.1889684  56.7497541  21.7544270
  24.8692468  55.8962849  21.4618644  24.6423112  56.9646119  22.5102237
  28.9669591  59.4659982  25.4713776  29.1855601  60.3977090  25.4901810
  29.3795365  59.1067956  26.2568580  35.8873809  49.9728067  17.4589464
  35.0774538  49.6275152  17.8344711  36.5758226  49.6635611  18.0477076
  37.8164358  49.0506114  19.0813761  38.3695396  49.4701567  19.7403784
  38.0534444  48.1241862  19.1236717  33.8397457  55.0393187  34.8616525
  33.7394184  55.9887544  34.7928616  33.6218999  54.7111426  33.9892595
  33.0410528  52.2878113  11.4457202  33.9029692  52.6133011  11.7053020
  33.2260872  51.5009608  10.9330268  25.0577944  60.3700452  23.7237391
  24.3641415  59.9554405  23.2107346  25.8050935  60.4120989  23.1270810
  39.6446731  50.5611697  20.7913746  40.1446509  50.6728231  19.9828064
  40.2882339  50.2572750  21.4314554  33.7028727  58.4690326  33.6781587
  33.2195809  59.2690686  33.8845476  33.7889666  58.4798271  32.7249031
  26.9714686  60.3018706  21.6003406  26.9485375  60.4006393  20.6485289
  27.2815323  61.1483857  21.9220572  29.6302064  62.3594861  25.7150020
  30.5845318  62.3278803  25.6479952  29.4314588  61.8985485  26.5300246
  30.2201446  60.9295977  28.2820818  31.0394335  61.4240056  28.3055655
  30.4938254  60.0127945  28.2538386  27.9852293  67.9014481  22.7320218
  27.8506761  67.1414881  22.1658216  27.5684355  68.6255380  22.2649007
  39.1211256  63.0851404  11.7396794  39.8247106  63.2901407  12.3554449
  38.3973905  63.6528166  12.0045877  39.9509066  58.8361265  17.8599064
  39.8944268  59.2929817  17.0206696  40.5037409  58.0751950  17.6821907
  48.0726210  57.3647070  21.1920475  47.5125768  57.4340260  21.9652037
  47.4669714  57.1888055  20.4719971  31.1421419  68.7983798  22.9438661
  31.0253803  69.7429230  22.8417351  30.3213865  68.4957359  23.3324460
  41.0297954  63.5233933  13.7895254  41.8643557  63.0915132  13.6072728
  40.8682296  63.3515947  14.7172148  40.6843846  60.0266047  15.1551593
  40.6292650  59.8610318  14.2140037  40.0589901  60.7342079  15.3113783
  25.4736361  55.2634111  28.9813015  26.1195224  54.7533065  29.4700240
  25.2653512  56.0002793  29.5556440  33.9939971  49.5274156  14.7336911
  33.9818641  50.4715995  14.8905182  34.8863393  49.3444301  14.4396373
  32.1675933  69.4512059  26.1594589  33.0703180  69.4835670  26.4761084
  31.9413303  68.5212510  26.1740925  33.9229535  68.2043046  22.8204668
  32.9725166  68.2044908  22.7069040  34.2262021  67.4575781  22.3040703
  37.8092091  46.1216932  18.9882848  37.0424486  45.5675419  19.1339530
  38.2202796  46.1938801  19.8497000  29.8133852  52.4101728  33.0788029
  30.6765313  52.0538533  33.2891354  29.2399262  52.0715623  33.7663434
  49.6582229  74.0403584  23.8850430  50.2960639  73.9210332  23.1813770
  49.5403072  74.9884428  23.9438383  46.4671935  73.9931012  23.8211955
  46.1290446  73.8772077  22.9332490  47.3361703  73.5922178  23.8012961
  46.9491718  75.1465864  29.7798161  46.9380359  74.7518662  28.9078664
  47.1112357  74.4131937  30.3731932  44.5955186  75.3079825  25.3178704
  45.1918758  75.0835847  24.6035667  44.6530157  74.5664570  25.9204152
  49.2123497  71.7655038  20.9603638  49.9986586  71.3474461  20.6094055
  49.4762201  72.6701130  21.1285287  54.6131924  71.7030271  21.8636617
  55.3457096  71.1329488  22.0974446  53.8571280  71.3151872  22.3043123
  46.2308044  74.1257513  19.0599959  45.8666251  73.5988134  19.7712881
  47.0875160  73.7355982  18.8866445  52.1357345  65.4151846  26.3231226
  51.8040669  66.2847256  26.0992441  51.5402958  65.0988130  27.0025256
  42.0801346  74.0678188  21.7563843  41.1551842  73.9354402  21.9641534
  42.3285759  74.8472408  22.2533785  52.0286008  70.1346932  23.4024576
  51.1202885  70.0662340  23.1083337  51.9773604  70.6118877  24.2306401
  39.4410157  73.7111462  22.5907632  39.5702538  73.9645941  23.5047043
  38.7607608  74.3039170  22.2712287  46.1026874  71.5536577  31.3459473
  45.3260208  72.1130497  31.3362337  46.7417437  72.0393360  31.8674343
  53.8947654  68.3363370  25.1802450  53.2522035  68.6295903  24.5342244
  53.3902583  68.2216290  25.9855646  44.3573246  74.3622031  30.9077440
  45.0987930  74.9007075  30.6312263  43.6510231  74.9888319  31.0648992
  46.1859656  71.4423778  26.8783158  47.0320851  71.8663191  27.0217807
  46.1258293  70.7857402  27.5721721  49.3359101  69.1028146  28.5364332
  49.0920033  69.8570207  27.9998608  49.6119032  69.4813494  29.3711579
  48.8923793  68.2584579  24.1178170  48.0308272  68.5565833  24.4094907
  48.9186227  68.4754978  23.1859202  43.0934610  71.5161679  31.7092750
  42.4633270  72.1977960  31.9428147  42.9870698  71.4044760  30.7645888
  38.3879582  71.1833475  22.6358674  37.5978636  71.4391003  22.1598785
  38.8790830  71.9981813  22.7410715  40.3394328  71.5478054  19.5942151
  39.5425491  71.6596748  20.1125646  40.1119920  71.8864706  18.7283041
  36.6717285  71.4363965  25.0673665  36.9225324  72.3210975  25.3331241
  37.2076834  71.2568567  24.2948757  42.3715352  65.8182445  34.0718001
  41.9782298  65.2648643  34.7465645  43.1881493  66.1293023  34.4624518
  45.2883313  67.2340324  31.6638257  46.0293027  67.8347477  31.5842720
  45.5201236  66.4917962  31.1056300  40.4324651  72.4196691  29.9416487
  40.3178167  71.5181948  30.2423586  39.5769169  72.6660388  29.5901304
  49.2340476  63.2621427  25.9402539  48.8904746  64.1523068  25.8641650
  49.6019439  63.0723084  25.0772124  46.7837870  68.0979739  19.5060213
  45.9279467  67.7086589  19.3265851  47.1964822  68.1771699  18.6459998
  48.3137017  65.6326082  23.9051772  47.8101812  65.5956217  23.0919578
  48.6067624  66.5418825  23.9648429  44.5579903  65.7164812  22.9117954
  45.4232899  65.5207620  22.5523844  44.6257412  65.4875163  23.8387311
  42.1642222  67.9467020  20.2834321  42.7385974  67.7242201  19.5507514
  42.7513204  68.0155714  21.0362922  51.2221799  73.8340746  21.0898697
  51.7353681  74.4670738  21.5920407  51.8723023  73.2341942  20.7242057
  44.4664889  64.8208268  19.0109390  43.8129302  64.5057286  18.3866005
  44.4245364  64.1984009  19.7369213  47.7002630  71.3090202  23.3357038
  46.7825191  71.5305149  23.1778726  48.1162773  71.3836512  22.4768745
  50.9316515  69.7438734  20.4478508  50.1939272  69.2316120  20.7788750
  51.1843288  69.3039115  19.6361784  51.0328142  62.5214986  21.0420277
  51.3387019  61.6612349  20.7546192  51.7580747  63.1132606  20.8419271
  37.3252498  72.9245672  19.4301875  37.1276898  72.3315033  18.7052941
  36.7699162  72.6197883  20.1477814  45.3049222  72.8168779  21.5496468
  45.3597832  71.8642615  21.4738944  44.4940424  72.9728218  22.0337766
  43.2441582  71.4345839  19.3086847  42.4309447  71.7340009  19.7152039
  43.7400576  71.0401527  20.0261329  48.8415793  71.8987663  28.1401741
  49.1965181  72.1259136  28.9996206  49.4887925  72.2306040  27.5178996
  42.7355656  69.0064194  24.9248082  43.3755036  68.8652953  24.2271045
  41.9033187  68.7198708  24.5486684  39.8198724  72.4509706  17.1142827
  38.8896312  72.3894162  17.3312789  39.9156196  71.9285659  16.3179468
  39.7384273  68.9764519  19.7021069  39.9991090  69.8909852  19.5930229
  40.5601445  68.5088962  19.8517681  41.2109198  70.3902276  26.8719893
  41.8832252  70.1819639  26.2232542  40.3838985  70.1924362  26.4325125
  47.1134770  67.0164217  28.8885554  46.4662685  67.7154167  28.7950030
  47.8835786  67.4500361  29.2561802  47.2898905  74.8544982  26.9482374
  48.2190965  75.0056142  26.7751341  46.8689935  74.9429003  26.0931020
  41.6136695  73.6644879  27.6322330  41.4756493  72.9325118  28.2333869
  42.5241619  73.5753779  27.3506518  44.2418996  73.3764839  27.1206010
  44.9518615  72.7358031  27.0792628  44.1988304  73.6277734  28.0432191
  42.9547930  70.3630057  28.9401649  42.4185287  69.9120795  29.5923246
  42.3664639  70.4975965  28.1972114  38.6887051  69.4986064  26.0254644
  38.6045240  68.8911734  25.2905054  37.8669758  69.9895083  26.0264140
  48.8610765  67.9839628  21.3924839  49.3579465  67.2309590  21.0725909
  48.0897747  68.0203944  20.8268048  45.4445734  70.1257011  21.1196523
  45.0743522  69.5728051  21.8077429  45.9404826  69.5215144  20.5671524
  51.3029760  64.9509221  23.5404198  50.3892840  65.1813448  23.7086405
  51.7322861  65.0347665  24.3918230  51.0736219  73.1399113  26.0404092
  50.4207669  73.3875021  25.3856545  51.4516598  72.3263251  25.7066569
  47.1223792  73.8818924  32.5270129  46.4464429  73.7813054  33.1972504
  47.9451425  73.7258138  32.9906126  40.8411068  67.5361002  27.3649630
  40.9052394  68.3975832  26.9527027  40.7778188  66.9235003  26.6321988
  40.3163340  69.6084134  31.0122664  40.9435379  69.2261211  31.6260188
  39.4591259  69.3898336  31.3778356  37.0928883  71.4160563  16.9441019
  37.3882324  70.5071242  16.8908072  36.1916919  71.3948303  16.6222021
  40.6223130  69.4916560  22.9268567  39.9009716  70.1052528  22.7876041
  41.4116386  70.0274325  22.8485213  43.4249443  66.8270986  29.2009219
  43.9483845  67.0733283  29.9635528  43.2061777  67.6591021  28.7812356
  38.8216725  69.0974661  17.0680344  38.4929431  68.2172040  16.8855450
  39.1756095  69.0422330  17.9556733  41.9358548  69.3847631  17.4355821
  42.2754620  69.9133552  16.7134430  42.3830668  69.7228037  18.2114388
  44.6301989  67.7684681  26.8858890  44.2898809  66.9692494  27.2879569
  43.9240995  68.0686392  26.3135723  45.2818460  64.8533994  25.3386213
  46.1044530  64.3794472  25.2165103  45.5256524  65.6324478  25.8384899
  43.9226695  67.8822252  15.6349114  44.6435057  68.2603505  15.1312831
  43.2991999  68.6011129  15.7384092  42.8057039  71.5453114  23.1478191
  42.6601620  71.8593418  24.0402473  42.3282243  72.1638015  22.5949090
  44.6653422  68.5355662  23.1959081  44.6514991  67.6396756  22.8591379
  45.3825850  68.5426326  23.8297367  46.5179553  68.9693003  25.2412208
  46.2597331  69.8910073  25.2396539  45.9864593  68.5723437  25.9312672
  44.0690318  67.4170043  18.4646651  44.1906229  66.4886689  18.6637538
  43.7792360  67.4308729  17.5524966  46.9381508  65.1024953  21.6013371
  46.9603205  65.1664286  20.6465350  47.3549567  64.2629462  21.7953877
  38.0668723  73.2128355  28.9796009  37.3250459  73.3610990  29.5660640
  37.7461467  73.4736621  28.1162759  43.5531397  68.9302040  32.6736583
  43.6019553  69.8064163  32.2914353  44.0953912  68.3879433  32.1008227
  51.4487881  72.3066558  30.5829756  52.3497743  72.1673023  30.2913754
  51.5235855  72.4721013  31.5227933  45.7830686  69.6833413  29.4282942
  44.9133995  69.9766979  29.1565531  46.0190166  70.2673858  30.1490206
  48.4869720  65.9013029  26.9448363  49.0051664  66.6374056  26.6194851
  48.1324852  66.2077023  27.7795122  40.0668657  70.7617711  15.0609768
  39.3737902  70.8362066  14.4049804  39.8220409  69.9978054  15.5831285
  48.7382314  62.3213312  22.4649259  49.0184068  61.6536501  23.0909686
  49.5232921  62.5142408  21.9523923  52.6091172  70.7430946  26.2120834
  53.5608595  70.8429044  26.2333058  52.4394623  69.9509215  26.7218919
  50.6305552  67.8286529  26.3980235  50.0355484  68.1091542  25.7026724
  50.3455248  68.3180430  27.1696976  55.2373739  70.7548109  25.3721417
  54.7212787  69.9706566  25.1851346  56.1213687  70.4266826  25.5367937
  52.8984465  64.4989125  21.3317230  52.7009287  64.1904213  22.2160562
  53.5084171  65.2250764  21.4615160  46.8101273  76.8850865  32.8290995
  47.7304283  77.0629464  33.0231041  46.7750856  75.9406910  32.6770694
  36.0283438  72.0789458  21.7544270  35.7086223  71.2254767  21.4618644
  35.4816867  72.2938037  22.5102237  46.7267564  65.3019985  17.4589464
  45.9168292  64.9567070  17.8344711  47.4151981  64.9927528  18.0477076
  48.6558112  64.3798032  19.0813761  49.2089151  64.7993485  19.7403784
  48.8928198  63.4533780  19.1236717  44.6791211  70.3685105  34.8616525
  44.5787938  71.3179462  34.7928616  44.4612753  70.0403344  33.9892595
  52.0336919  66.4898557  18.5892425  51.4535588  67.1483361  18.2070478
  51.7672852  65.6675901  18.1779843  50.4840486  65.8903614  20.7913746
  50.9840264  66.0020149  19.9828064  51.1276093  65.5864667  21.4314554
  44.5422481  73.7982244  33.6781587  44.0589563  74.5982604  33.8845476
  44.6283420  73.8090189  32.7249031  54.1676333  68.6745168  21.3603113
  54.9436723  69.1641620  21.6327730  53.4424467  69.1003222  21.8174982
  56.6048892  69.3872787  22.4177053  57.1993383  69.1468523  21.7070362
  56.6775476  68.6679918  23.0450590  36.3130115  70.5926029  28.9813015
  36.9588979  70.0824983  29.4700240  36.1047266  71.3294710  29.5556440
  44.8333726  64.8566073  14.7336911  44.8212395  65.8007913  14.8905182
  45.7257148  64.6736219  14.4396373  48.6485845  61.4508850  18.9882848
  47.8818241  60.8967337  19.1339530  49.0596550  61.5230719  19.8497000
  40.6527606  67.7393646  33.0788029  41.5159068  67.3830451  33.2891354
  40.0793017  67.4007541  33.7663434  14.9935227  11.3800801  18.2649294
  14.5499081  10.5937179  17.9470199  15.6552441  11.5679951  17.5993185
  17.0916465  11.6603601  16.2930696  17.0734940  12.4812482  15.8010965
  18.0136385  11.5357676  16.5180837  18.0032306   8.2999439  18.6881414
  17.8517812   8.0709991  17.7711498  17.9936985   9.2570040  18.7012759
  19.7124513  11.3318562  16.7657896  19.6537059  10.6477782  16.0988479
  20.1144031  12.0737552  16.3138522  19.7141920   9.2958146  14.9971875
  18.8268699   8.9584067  15.1198274  20.2840471   8.5641177  15.2340641
  14.6042529   4.9005294  19.2515436  13.9283166   4.7999423  19.9217811
  15.4270163   4.7444508  19.7151433  13.3465312  16.2072221  13.4873051
  13.8983620  16.3703843  14.2522137  13.6871506  16.7976659  12.8153076
  18.1976187  11.0333479  19.3421706  18.7416091  11.6463437  18.8476661
  17.6163031  11.5913057  19.8588719  13.4931124  13.7730703  15.5021706
  13.8018250  13.5279850  16.3744405  14.2906606  13.9777341  15.0140576
  21.5204981  10.4929533  18.6783027  20.7300525  10.4753672  18.1387527
  21.2838335  11.0317827  19.4332064  21.6402856   7.3421999  15.9915756
  21.6900861   7.1772007  16.9331279  21.5316779   6.4749258  15.6013636
  23.1421053   9.7618941  16.2357777  22.8505861  10.1248921  17.0721238
  22.5293184   9.0485949  16.0571109  14.2920011   7.9037234  19.5536302
  15.2123021   8.0815833  19.7476348  14.2569594   6.9593280  19.4016001
  16.3202245   8.6793246  21.2050462  17.1893405   8.8533898  20.8437097
  15.8408997   9.4987663  21.0826192  27.9794721  20.3881872  10.6095737
  28.6173131  20.2688619   9.9059077  27.8615564  21.3362716  10.6683689
  24.7884427  20.3409300  10.5457262  24.4502939  20.2250364   9.6577797
  25.6574195  19.9400465  10.5258268  25.2704210  21.4944151  16.5043467
  25.2592851  21.0996950  15.6323971  25.4324850  20.7610224  17.0977239
  18.1935675  23.6895968   9.3738373  18.9856967  23.3486792   8.9584672
  18.4332325  23.7990943  10.2940526  21.9911471  24.2781263  15.4522651
  21.7001337  25.1826894  15.3369318  22.6268456  24.3197791  16.1666721
  22.9167678  21.6558112  12.0424011  23.5131250  21.4314134  11.3280974
  22.9742650  20.9142857  12.6449459  27.5335989  18.1133325   7.6848945
  28.3199079  17.6952749   7.3339362  27.7974694  19.0179418   7.8530593
  32.9344417  18.0508559   8.5881924  33.6669588  17.4807775   8.8219753
  32.1783772  17.6630159   9.0288429  30.4569837  11.7630133  13.0476532
  30.1253162  12.6325544  12.8237747  29.8615450  11.4466417  13.7270563
  26.9501356  23.9642679  12.4472445  26.6502079  24.8667718  12.3388252
  26.6052416  23.6974862  13.2993598  20.4013838  20.4156476   8.4809149
  19.4764334  20.2832690   8.6886841  20.6498251  21.1950695   8.9779092
  30.3498500  16.4825219  10.1269882  29.4415378  16.4140627   9.8328643
  30.2986096  16.9597164  10.9551708  17.7622649  20.0589749   9.3152938
  17.8915030  20.3124228  10.2292350  17.0820100  20.6517457   8.9957593
  21.9322136  30.7286999   5.4143413  21.8546166  31.6794824   5.4931893
  21.3283780  30.3832872   6.0718339  24.4239366  17.9014865  18.0704779
  23.6472700  18.4608785  18.0607644  25.0629929  18.3871648  18.5919650
  32.2160147  14.6841657  11.9047756  31.5734527  14.9774191  11.2587551
  31.7115075  14.5694578  12.7100953  22.6785738  20.7100318  17.6322746
  23.4200423  21.2485362  17.3557570  21.9722724  21.3366607  17.7894298
  28.1541078  22.8529458  16.2294908  28.5624434  22.4111869  15.4849540
  27.4318339  22.2782086  16.4829101  24.5072148  17.7902065  13.6028465
  25.3533343  18.2141479  13.7463114  24.4470786  17.1335689  14.2967028
  28.4769893  23.4130649   9.9847197  27.8478755  23.5776363   9.2823265
  28.0895555  23.8272259  10.7558161  32.3559124  24.3485087   7.3391561
  31.6710163  24.7283988   6.7888594  32.4402974  24.9580413   8.0723508
  27.6571593  15.4506433  15.2609639  27.4132525  16.2048494  14.7243914
  27.9331524  15.8291781  16.0956886  29.6110056  21.9945046  13.9386904
  29.8226951  22.6376806  13.2621285  29.5639804  21.1607362  13.4708834
  27.2136285  14.6062867  10.8423476  26.3520764  14.9044120  11.1340214
  27.2398720  14.8233265   9.9104509  24.0297854  23.1505057   7.2497282
  24.4936200  23.4292760   6.4601904  23.7654653  22.2488502   7.0670373
  20.9221936  22.6976539  10.1877045  21.4923293  23.1263807   9.5494530
  21.5130047  22.4159123  10.8861231  21.4147102  17.8639966  18.4338056
  20.7845763  18.5456247  18.6673453  21.3083190  17.7523048  17.4891195
  30.7255884  24.8717001  12.1109261  31.5473328  24.4697189  11.8291943
  30.7218287  24.7685235  13.0625377  24.4912487  24.4201045  14.2669972
  24.5556920  24.8821452  15.1028144  23.7823411  23.7898409  14.3952282
  38.8161877  21.2155750   8.4594233  38.0625585  20.6463148   8.3038237
  38.9509418  21.1818414   9.4064868  24.2060505  26.0869152   4.1348952
  24.0706180  26.9320688   4.5633800  24.7470318  26.2888430   3.3714886
  20.6927845  12.1660732  20.7963308  20.2994790  11.6126930  21.4710952
  21.5093985  12.4771310  21.1869825  19.4684787  26.7210346   6.7899631
  19.6451416  27.6428311   6.6020614  20.2641621  26.4068766   7.2194010
  23.6095806  13.5818611  18.3883564  24.3505519  14.1825764  18.3088027
  23.8413729  12.8396249  17.8301607  18.7537144  18.7674978  16.6661794
  18.6390659  17.8660236  16.9668893  17.8981662  19.0138675  16.3146610
  25.8328982  26.7092719  18.2649294  25.3892836  25.9229097  17.9470199
  26.4946195  26.8971869  17.5993185  20.5916103  28.2388520  12.7909973
  21.1423528  28.1105584  12.0186967  19.7527579  28.5383409  12.4404866
  27.9310220  26.9895519  16.2930696  27.9128695  27.8104400  15.8010965
  28.8530140  26.8649594  16.5180837  24.3883274  24.5039648  17.1354204
  24.9211611  23.7427936  16.9053512  23.8597355  24.2113300  17.8778359
  27.5552969   9.6099714  12.6647846  27.2117238  10.5001356  12.5886956
  27.9231931   9.4201372  11.8017431  32.4937526  22.3540680   3.1073454
  31.7166968  22.0151839   2.6628616  33.1729007  22.3593303   2.4328419
  25.7535986  23.6325640   4.6473016  25.2257348  22.8978400   4.3346254
  25.2523489  24.4100317   4.4012984  30.7328832  21.8274661   9.7640062
  30.0752507  22.5173922   9.8520191  31.5369232  22.2171093  10.1074049
  29.5434291  20.1819034   7.8144004  30.0566173  20.8149025   8.3165714
  30.1935515  19.5820229   7.4487364  26.8056665  30.1603358   0.5704675
  26.1318364  30.4635055   1.1789633  27.1922487  30.9632438   0.2210132
  26.0215122  17.6568489  10.0602345  25.1037683  17.8783436   9.9024033
  26.4375266  17.7314800   9.2014052  30.3096087  25.1625035   5.9423147
  29.8558415  24.3215945   5.9988337  29.6790054  25.7986433   6.2797927
  28.7529027  27.0001532   6.8772965  29.0452001  27.5606589   6.1585331
  29.2627647  27.2930093   7.6326124  23.6261714  19.1647066   8.2741775
  23.6810324  18.2120903   8.1984251  22.8152916  19.3206505   8.7583073
  23.7162652  27.7781883   7.9666418  23.6738831  28.0042729   7.0374950
  24.6325351  27.5445257   8.1152219  27.1628286  18.2465950  14.8647047
  27.5177673  18.4737424  15.7241513  27.8100417  18.5784327  14.2424303
  32.8926023  21.3684386   5.5696376  32.7543921  21.5585982   4.6417566
  32.5362241  22.1303769   6.0264427  21.0568149  15.3542481  11.6493388
  21.6967528  15.2131241  10.9516352  20.2245679  15.0676995  11.2731990
  32.9195402  23.4360913  10.5807648  33.3531909  23.3436202  11.4290702
  33.6326983  23.4118414   9.9427664  21.8328453  24.6544912   7.7628381
  22.6269051  24.1595232   7.5610956  21.1220145  24.1262775   7.3996086
  26.6523297  27.0363007  12.1140748  26.7060319  27.6053944  12.8818464
  25.7838079  27.2064892  11.7494786  19.5321691  16.7380564  13.5965200
  20.2044744  16.5297926  12.9477849  18.7051477  16.5402650  13.1570432
  33.7810952  23.4784614  13.1140533  33.9746842  24.3830424  13.3599808
  33.6811570  23.0192033  13.9479118  25.4347263  13.3642505  15.6130861
  24.7875178  14.0632454  15.5195337  26.2048278  13.7978648  15.9807109
  28.8426060  23.6291357  18.6881414  28.6911567  23.4001908  17.7711498
  28.8330740  24.5861958  18.7012759  25.6111397  21.2023269  13.6727680
  26.5403457  21.3534429  13.4996648  25.1902427  21.2907290  12.8176327
  24.4099729  25.2273934  11.4426218  24.2710814  24.8592718  12.3152156
  23.6214325  25.7421573  11.2710176  25.0047881  30.3283030   2.7851754
  25.1799636  29.8571074   3.5997377  24.3180669  30.9548797   3.0133015
  25.9604944  24.6055537   8.8315056  25.6254776  24.5656307   9.7272706
  25.4608889  23.9400252   8.3585466  19.9349188  20.0123167  14.3567637
  19.7968986  19.2803405  14.9579176  20.8454111  19.9232067  14.0751825
  22.5631488  19.7243126  13.8451317  23.2731107  19.0836318  13.8037935
  22.5200797  19.9756021  14.7677497  30.5518267  26.6610479  16.7657896
  30.4930813  25.9769699  16.0988479  30.9537786  27.4029469  16.3138522
  21.2760422  16.7108344  15.6646956  20.7397779  16.2599082  16.3168552
  20.6877131  16.8454253  14.9217420  19.5708966  33.4772393   9.5591615
  19.8105564  34.1090917  10.2370633  18.7278162  33.1260433   9.8456974
  30.5535674  24.6250063  14.9971875  29.6662453  24.2875985  15.1198274
  31.1234225  23.8933094  15.2340641  17.0099544  15.8464352  12.7499950
  16.9257732  15.2390021  12.0150360  16.1882250  16.3373370  12.7509447
  24.0836828  29.2851516  11.9633119  24.0106999  30.0906487  12.4752423
  23.6414221  29.4843481  11.1381140  23.8726607  28.5223286   5.4735940
  23.0894129  29.0644966   5.5674165  24.5719353  29.0397265   5.8730181
  35.0353015  20.0358281   9.7588437  35.0242891  20.9182996   9.3882370
  34.1670394  19.6829831   9.5642974  26.5435511  29.1838350  14.1191277
  27.2563484  29.8185814  14.0467179  26.0525540  29.2802216  13.3031279
  28.2653038  23.0889602   5.6908569  27.3309317  23.2091065   5.5213273
  28.4429707  22.1862069   5.4268579  31.6525590  18.9306922   6.2258603
  32.1186042  19.7634913   6.1518906  32.1033090  18.4651903   6.9303862
  21.5947425  26.9332793  14.9396848  22.2956884  27.5669276  15.0926242
  21.1242540  27.2747525  14.1792487  29.7201821  25.2750743   3.2244755
  29.9961665  25.1607337   4.1338629  28.8506319  24.8768228   3.1856928
  29.6242252  11.2987509  10.2649504  28.7105332  11.5291735  10.4331711
  30.0535354  11.3825953  11.1163537  29.3948711  19.4877401  12.7649398
  28.7420161  19.7353308  12.1101851  29.7729091  18.6741539  12.4311876
  26.3555885  29.5237094   6.8677569  26.5378279  28.7058750   7.3305321
  27.1788871  29.7404786   6.4302459  26.6898050  28.4505279   4.1292617
  27.2185817  27.9397733   3.5162779  26.9526270  28.1347809   4.9938150
  25.4436284  20.2297212  19.2515436  24.7676921  20.1291341  19.9217811
  26.2663918  20.0736425  19.7151433  17.1915143  26.4669148  11.8727951
  17.7768580  25.7212836  12.0055855  16.9939981  26.7773105  12.7564615
  20.0453798  29.5020395   6.8890393  19.3764173  29.9866523   6.4054433
  19.9066668  29.7489616   7.8033772  24.1859067  31.5364139  13.4873051
  24.7377375  31.6995761  14.2522137  24.5265260  32.1268577  12.8153076
  19.1623560  13.8839289  14.0894936  19.2264886  14.7454120  13.6772334
  19.0990680  13.2713290  13.3567295  18.6375832  15.9562421  17.7367970
  19.2647871  15.5739499  18.3505495  17.7803751  15.7376623  18.1023663
  29.0369941  26.3625397  19.3421706  29.5809845  26.9755355  18.8476661
  28.4556786  26.9204975  19.8588719  27.3227454  29.4846115  10.4736734
  27.1978593  28.6835854   9.9647679  27.9806545  29.9792308   9.9850704
  29.3862362  27.2855135  12.1016284  28.4392698  27.1660486  12.0294610
  29.7345135  26.3977633  12.1842545  21.7461936  13.1749274  15.9254526
  22.2696338  13.4211570  16.6880835  21.5274269  14.0069308  15.5057663
  26.3908796  27.0807851   8.3020636  26.2433758  26.1524558   8.4828206
  27.2162289  27.1027942   7.8177711  29.9942918  27.9036410   9.3885509
  30.9189465  27.6979271   9.2509960  29.8258221  27.6552811  10.2974850
  22.9514481  14.1162969  13.6104196  22.6111301  13.3170782  14.0124876
  22.2453487  14.4164679  13.0381029  23.6030953  11.2012281  12.0631519
  24.4257022  10.7272759  11.9410410  23.8469016  11.9802765  12.5630205
  21.1269531  17.8931402   9.8723498  20.9814112  18.2071705  10.7647779
  20.6494735  18.5116302   9.3194396  24.8392045  15.3171290  11.9657515
  24.5809823  16.2388361  11.9641845  24.3077085  14.9201724  12.6557979
  29.7838234  28.4222077   4.7447600  29.9575111  27.8568499   3.9921453
  30.2767125  29.2222972   4.5627090  15.6015194  20.4336746  12.8111159
  15.0568662  21.2096554  12.9431433  16.4794543  20.7807551  12.6530280
  35.6377625  21.1858500   6.3637900  36.0808771  20.4365825   5.9657023
  34.7604135  21.1768636   5.9811632  30.7713406  27.7388841   1.8444498
  31.4664311  28.3595534   2.0631813  31.1136556  26.8884193   2.1196876
  16.3881215  19.5606642  15.7041316  15.6462951  19.7089278  16.2905946
  16.0673960  19.8214908  14.8408065  32.6704829  25.1888547   3.3731829
  33.1956153  25.5275820   2.6481149  32.5827182  24.2535562   3.1894964
  24.3324878  29.1022621  15.5021706  24.6412004  28.8571767  16.3744405
  25.1300360  29.3069259  15.0140576  24.3545490  31.2560530   7.7327082
  23.9150480  30.7636909   8.4259939  25.1053607  30.7133498   7.4919158
  16.8337829  27.4472071   7.7351710  17.6595849  27.1475843   7.3550354
  16.4831881  26.6779694   8.1841499  21.8019362  26.7998539   9.8049384
  21.1799372  26.1369244   9.5051612  22.4724229  26.8259671   9.1223032
  15.0346434  25.3658398   8.6940644  14.1978342  24.9380572   8.5124645
  15.0070080  25.5590841   9.6311435  21.8743890  15.2780327  19.3981890
  21.9232045  16.1542450  19.0159660  22.4166404  14.7357720  18.8253533
  32.3598735  25.8221451  18.6783027  31.5694279  25.8045589  18.1387527
  32.1232090  26.3609744  19.4332064  32.4796610  22.6713917  15.9915756
  32.5294615  22.5063924  16.9331279  32.3710534  21.8041176  15.6013636
  29.7700373  18.6544845  17.3075062  30.6710236  18.5151310  17.0159060
  29.8448347  18.8199300  18.2473240  24.1043178  16.0311700  16.1528249
  23.2346488  16.3245266  15.8810837  24.3402659  16.6152145  16.8735512
  33.9814807  25.0910858  16.2357777  33.6899616  25.4540839  17.0721238
  33.3686939  24.3777867  16.0571109  35.1810490  22.6563738   8.7560347
  36.0157381  23.0953542   8.9197908  35.3169618  22.1802391   7.9368593
  32.2301996  20.2143473  14.7037835  32.7056117  20.4071119  13.8956687
  31.3067561  20.2702659  14.4581219  26.8082212  12.2491317  13.6693669
  27.3264156  12.9852344  13.3440158  26.4537345  12.5555310  14.5040428
  30.9303665  17.0909233  12.9366141  31.8821087  17.1907331  12.9578365
  30.7607115  16.2987502  13.4464225  28.9518044  14.1764816  13.1225542
  28.3567976  14.4569829  12.4272030  28.6667741  14.6658717  13.8942283
  28.0825534  28.1287743   1.8828174  29.0156208  28.0633305   2.0861050
  27.9948747  28.9644010   1.4242707  33.4091742  20.3115353  12.0508440
  33.3768062  19.3731354  12.2368124  34.0192366  20.3899390  11.3174265
  33.5586231  17.1026396  12.0966724  33.0425279  16.3184853  11.9096653
  34.4426179  16.7745113  12.2613243  39.2268292  21.3731360  11.1914477
  39.9571681  21.1116648  11.7522181  38.6175238  20.6360082  11.2316545
  37.3083589  19.5139222  11.7888928  36.5816753  19.3795187  11.1805420
  36.8930876  19.8216051  12.5945647  25.1313766  23.2329152  19.5536302
  26.0516775  23.4107751  19.7476348  25.0963349  22.2885197  19.4016001
  18.1275838  21.1430187  12.1959083  18.3461848  22.0747294  12.2147116
  18.5401612  20.7838161  12.9813887  23.0003704  16.7163392  21.5861832
  22.9000430  17.6657749  21.5173923  22.7825246  16.3881631  20.7137902
  14.2184191  22.0470657  10.4482698  13.5247662  21.6324610   9.9352652
  14.9657182  22.0891194   9.8516117  22.8634974  20.1460531  20.4026893
  22.3802055  20.9460891  20.6090782  22.9495913  20.1568476  19.4494337
  18.7908311  24.0365066  12.4395327  19.7451565  24.0049008  12.3725259
  18.5920835  23.5755690  13.2545553  19.3807693  22.6066182  15.0066125
  20.2000582  23.1010261  15.0300962  19.6544501  21.6898150  14.9783692
  32.4888826  15.0223455   8.0848419  33.2649216  15.5119908   8.3573036
  31.7636960  15.4481509   8.5420289  34.9261384  15.7351075   9.1422360
  35.5205875  15.4946810   8.4315668  34.9987968  15.0158205   9.7695896
  17.1458540  29.5784685   9.4565525  17.0113008  28.8185086   8.8903523
  16.7290602  30.3025585   8.9894314  32.9220119  16.3021202   5.4094490
  32.6657053  15.9017838   6.2402698  32.2972987  17.0164996   5.2844629
  37.2332457  19.0417275   7.9165781  36.6732015  19.1110465   8.6897343
  36.6275960  18.8658260   7.1965278  20.3027666  30.4754002   9.6683968
  20.1860050  31.4199435   9.5662658  19.4820112  30.1727564  10.0569767
  14.6342607  16.9404316  15.7058322  15.2801471  16.4303270  16.1945547
  14.4259759  17.6772998  16.2801747  27.1596000  24.0085163  21.2050462
  28.0287159  24.1825816  20.8437097  26.6802751  24.8279580  21.0826192
  21.3282180  31.1282264  12.8839896  22.2309427  31.1605875  13.2006391
  21.1019550  30.1982715  12.8986232  23.0835782  29.8813251   9.5449975
  22.1331413  29.8815113   9.4314347  23.3868268  29.1345985   9.0286009
  18.9740098  14.0871933  19.8033336  19.8371560  13.7308738  20.0136661
  18.4005509  13.7485828  20.4908740  38.8188475  35.7173789  10.6095737
  39.4566885  35.5980537   9.9059077  38.7009318  36.6654633  10.6683689
  35.6278182  35.6701217  10.5457262  35.2896693  35.5542282   9.6577797
  36.4967950  35.2692382  10.5258268  31.4864997  37.5236694   6.5354153
  30.9229863  37.4326631   5.7670440  31.3717392  36.7036598   7.0156645
  36.1097965  36.8236069  16.5043467  36.0986605  36.4288867  15.6323971
  36.2718604  36.0902142  17.0977239  29.0329429  39.0187885   9.3738373
  29.8250721  38.6778710   8.9584672  29.2726079  39.1282860  10.2940526
  37.0664556  41.1907662   1.8468618  36.4152536  41.7761742   1.4602631
  37.8608919  41.7213856   1.9063655  30.9920183  38.2796799   2.2455752
  31.7651059  37.7325786   2.1068628  31.3445582  39.1441048   2.4570213
  32.8305226  39.6073181  15.4522651  32.5395092  40.5118812  15.3369318
  33.4662210  39.6489709  16.1666721  33.7561433  36.9850029  12.0424011
  34.3525005  36.7606052  11.3280974  33.8136404  36.2434775  12.6449459
  33.3286461  34.4389465  -0.1225798  33.5811982  33.9170986  -0.8842335
  32.3911020  34.2755610  -0.0199115  38.3729744  33.4425243   7.6848945
  39.1592833  33.0244666   7.3339362  38.6368448  34.3471335   7.8530593
  38.5439821  38.8798093   2.3837602  37.9085654  38.9532720   3.0958507
  38.2137228  39.4691692   1.7056681  43.7738171  33.3800476   8.5881924
  44.5063343  32.8099693   8.8219753  43.0177527  32.9922077   9.0288429
  33.0482750  36.3417571   2.0798577  32.9319008  35.6662474   2.7479661
  33.1585010  35.8549945   1.2630730  35.3914291  35.8027718   5.7845266
  35.0272498  35.2758339   6.4958187  36.2481407  35.4126187   5.6111751
  41.2963591  27.0922050  13.0476532  40.9646916  27.9617461  12.8237747
  40.7009205  26.7758334  13.7270563  35.0319778  30.8317618   0.7806615
  35.1994180  31.6997854   1.1477086  34.8416947  30.9944899  -0.1432096
  37.7895111  39.2934596  12.4472445  37.4895834  40.1959635  12.3388252
  37.4446170  39.0266780  13.2993598  31.2407592  35.7448393   8.4809149
  30.3158089  35.6124607   8.6886841  31.4892006  36.5242613   8.9779092
  41.1892255  31.8117137  10.1269882  40.2809132  31.7432545   9.8328643
  41.1379850  32.2889082  10.9551708  35.0108999  33.2875275   1.7653281
  34.8908624  33.7332326   2.6038762  34.3161587  33.6360593   1.2066819
  28.6016403  35.3881667   9.3152938  28.7308785  35.6416146  10.2292350
  27.9213855  35.9809375   8.9957593  32.7715891  46.0578917   5.4143413
  32.6939920  47.0086742   5.4931893  32.1677534  45.7124789   6.0718339
  43.0553901  30.0133575  11.9047756  42.4128281  30.3066108  11.2587551
  42.5508830  29.8986495  12.7100953  40.7094065  33.7596748   2.5933615
  41.6211921  33.9924135   2.4181313  40.2003712  34.3433792   2.0308694
  33.5179493  36.0392236  17.6322746  34.2594177  36.5777280  17.3557570
  32.8116478  36.6658524  17.7894298  38.9934832  38.1821376  16.2294908
  39.4018188  37.7403787  15.4849540  38.2712094  37.6074004  16.4829101
  35.3465902  33.1193983  13.6028465  36.1927098  33.5433396  13.7463114
  35.2864540  32.4627607  14.2967028  39.3163647  38.7422567   9.9847197
  38.6872509  38.9068281   9.2823265  38.9289309  39.1564176  10.7558161
  43.1952879  39.6777005   7.3391561  42.5103917  40.0575906   6.7888594
  43.2796728  40.2872331   8.0723508  38.4965348  30.7798351  15.2609639
  38.2526280  31.5340412  14.7243914  38.7725278  31.1583699  16.0956886
  40.4503811  37.3236964  13.9386904  40.6620706  37.9668723  13.2621285
  40.4033559  36.4899280  13.4708834  38.0530040  29.9354784  10.8423476
  37.1914519  30.2336038  11.1340214  38.0792474  30.1525183   9.9104509
  34.8691609  38.4796975   7.2497282  35.3329954  38.7584678   6.4601904
  34.6048407  37.5780419   7.0670373  31.7615690  38.0268456  10.1877045
  32.3317047  38.4555725   9.5494530  32.3523802  37.7451041  10.8861231
  33.8060495  34.6020127   4.0586847  34.5084538  35.0541171   4.5260773
  33.4741123  33.9603946   4.6866740  32.2540857  33.1931884  18.4338056
  31.6239517  33.8748165  18.6673453  32.1476944  33.0814965  17.4891195
  27.5485829  32.8603680   9.3603981  26.7584883  33.1161208   8.8844091
  28.0397076  33.6752018   9.4656021  41.5649639  40.2008919  12.1109261
  42.3867082  39.7989106  11.8291943  41.5612041  40.0977153  13.0625377
  29.5000574  33.2248259   6.3187457  28.7031738  33.3366953   6.8370953
  29.2726167  33.5634911   5.4528348  35.3306242  39.7492962  14.2669972
  35.3950674  40.2113369  15.1028144  34.6217166  39.1190327  14.3952282
  25.8323532  33.1134170  11.7918971  26.0831570  33.9981180  12.0576547
  26.3683080  32.9338772  11.0194063  49.6555632  36.5447667   8.4594233
  48.9019340  35.9755066   8.3038237  49.7903173  36.5110332   9.4064868
  35.0454260  41.4161070   4.1348952  34.9099934  42.2612605   4.5633800
  35.5864072  41.6180347   3.3714886  31.5321599  27.4952650  20.7963308
  31.1388545  26.9418848  21.4710952  32.3487740  27.8063228  21.1869825
  28.4983657  38.9336508   4.7076877  29.0108178  39.7279758   4.8582442
  29.1506370  38.2362798   4.6410479  30.3078542  42.0502264   6.7899631
  30.4845170  42.9720229   6.6020614  31.1035375  41.7360683   7.2194010
  34.4489560  28.9110529  18.3883564  35.1899274  29.5117682  18.3088027
  34.6807483  28.1688166  17.8301607  29.5930898  34.0966896  16.6661794
  29.4784413  33.1952153  16.9668893  28.7375416  34.3430593  16.3146610
  31.4309857  43.5680438  12.7909973  31.9817282  43.4397501  12.0186967
  30.5921333  43.8675327  12.4404866  38.7703974  42.3187436  16.2930696
  38.7522449  43.1396317  15.8010965  39.6923894  42.1941511  16.5180837
  35.2277028  39.8331566  17.1354204  35.7605365  39.0719854  16.9053512
  34.6991109  39.5405217  17.8778359  38.3946723  24.9391632  12.6647846
  38.0510993  25.8293273  12.5886956  38.7625686  24.7493289  11.8017431
  26.4632574  37.2625162   5.4836448  27.3007796  37.6722170   5.2670156
  26.6410841  36.3224604   5.4536642  38.3597006  34.9300243   1.1720281
  37.8443629  35.7004847   1.4108668  38.0874314  34.2565379   1.7953342
  35.9444117  29.7749944   6.2305519  35.0885713  29.3856794   6.0511158
  36.3571069  29.8541904   5.3705305  37.4743264  27.3096287  10.6297079
  36.9708059  27.2726422   9.8164884  37.7673870  28.2189029  10.6893736
  33.7186149  27.3935017   9.6363261  34.5839146  27.1977825   9.2769150
  33.7863658  27.1645368  10.5632618  43.3331280  37.6832597   3.1073454
  42.5560723  37.3443757   2.6628616  44.0122761  37.6885221   2.4328419
  38.1483309  32.8027335   2.9980062  37.8433445  33.1173484   3.8490205
  39.1013751  32.8808755   3.0407395  36.5929741  38.9617558   4.6473016
  36.0651102  38.2270318   4.3346254  36.0917244  39.7392234   4.4012984
  41.5722587  37.1566579   9.7640062  40.9146261  37.8465840   9.8520191
  42.3762986  37.5463011  10.1074049  31.3248469  29.6237224   7.0079628
  31.8992220  29.4012406   6.2752821  31.9119451  29.6925919   7.7608229
  40.3828046  35.5110951   7.8144004  40.8959927  36.1440943   8.3165714
  41.0329270  34.9112147   7.4487364  31.6518056  31.6541685   1.0275513
  30.8155368  31.9916372   1.3484788  31.5122825  31.5190665   0.0902650
  33.6271136  26.4978473   5.7354697  32.9735549  26.1827491   5.1111312
  33.5851610  25.8754214   6.4614520  34.7382341  36.7797768  -2.3492011
  33.8309403  36.5487022  -2.1500862  35.2353373  35.9835388  -2.1618029
  37.6450420  45.4895276   0.5704675  36.9712119  45.7926972   1.1789633
  38.0316242  46.2924356   0.2210132  36.8608877  32.9860407  10.0602345
  35.9431438  33.2075354   9.9024033  37.2769020  33.0606717   9.2014052
  37.6443924  34.3851823   5.1905025  38.3915743  34.8973220   4.8812147
  37.9135514  34.0635875   6.0509418  35.9170575  36.8810363   2.1731979
  35.0081794  36.5969396   2.2704449  35.9465658  37.3009442   1.3135286
  41.1489842  40.4916953   5.9423147  40.6952169  39.6507863   5.9988337
  40.5183809  41.1278351   6.2797927  40.0922762  31.4208939   7.1723814
  39.3545518  30.9086325   7.5034057  40.3449535  30.9809320   6.3607091
  39.5922781  42.3293449   6.8772965  39.8845756  42.8898507   6.1585331
  40.1021402  42.6222010   7.6326124  40.1934389  24.1985191   7.7665583
  40.4993266  23.3382554   7.4791499  40.9186994  24.7902811   7.5664577
  26.4858745  34.6015877   6.1547181  26.2883145  34.0085238   5.4298248
  25.9305409  34.2968088   6.8723120  34.4655469  34.4938984   8.2741775
  34.5204078  33.5412820   8.1984251  33.6546671  34.6498423   8.7583073
  35.6146662  38.4219107  -0.4879942  35.1766092  37.7054966  -0.9474305
  36.3557103  38.6495222  -1.0494851  32.4047828  33.1116044   6.0332153
  31.5915694  33.4110214   6.4397346  32.9006823  32.7171732   6.7506636
  34.5556406  43.1073801   7.9666418  34.5132585  43.3334647   7.0374950
  35.4719105  42.8737175   8.1152219  38.0022040  33.5757868  14.8647047
  38.3571428  33.8029341  15.7241513  38.6494171  33.9076245  14.2424303
  43.7319777  36.6976304   5.5696376  43.5937676  36.8877900   4.6417566
  43.3755996  37.4595687   6.0264427  31.8961903  30.6834399  11.6493388
  32.5361283  30.5423158  10.9516352  31.0639434  30.3968913  11.2731990
  43.7589157  38.7652831  10.5807648  44.1925663  38.6728120  11.4290702
  44.4720737  38.7410331   9.9427664  32.6722207  39.9836830   7.7628381
  33.4662806  39.4887150   7.5610956  31.9613900  39.4554693   7.3996086
  37.4917052  42.3654925  12.1140748  37.5454074  42.9345861  12.8818464
  36.6231833  42.5356810  11.7494786  28.9804971  34.1279911   3.8388133
  28.0502559  34.0664367   4.0558096  29.0762443  33.6055864   3.0424775
  28.8990520  30.6534724   6.4266375  29.1597337  31.5680057   6.3175536
  29.7207692  30.1859167   6.5762988  30.3715445  32.0672481  13.5965200
  31.0438498  31.8589843  12.9477849  29.5445232  31.8694567  13.1570432
  44.6204706  38.8076532  13.1140533  44.8140596  39.7122342  13.3599808
  44.5205324  38.3483951  13.9479118  36.2741017  28.6934422  15.6130861
  35.6268932  29.3924372  15.5195337  37.0442032  29.1270566  15.9807109
  39.6819815  38.9583274  18.6881414  39.5305321  38.7293826  17.7711498
  39.6724494  39.9153876  18.7012759  36.4505151  36.5315187  13.6727680
  37.3797211  36.6826347  13.4996648  36.0296181  36.6199208  12.8176327
  35.2493483  40.5565852  11.4426218  35.1104569  40.1884636  12.3152156
  34.4608079  41.0713491  11.2710176  35.8441635  45.6574948   2.7851754
  36.0193391  45.1862991   3.5997377  35.1574423  46.2840714   3.0133015
  36.7998698  39.9347454   8.8315056  36.4648531  39.8948224   9.7272706
  36.3002644  39.2692170   8.3585466  30.7742942  35.3415084  14.3567637
  30.6362740  34.6095323  14.9579176  31.6847866  35.2523984  14.0751825
  39.7357890  37.2803489  -0.8947885  39.1187061  36.5550317  -0.9914832
  39.2674378  38.0412849  -1.2380810  33.4025243  35.0535044  13.8451317
  34.1124861  34.4128236  13.8037935  33.3594551  35.3047938  14.7677497
  41.3912022  41.9902397  16.7657896  41.3324568  41.3061617  16.0988479
  41.7931540  42.7321387  16.3138522  32.1154177  32.0400261  15.6646956
  31.5791534  31.5891000  16.3168552  31.5270885  32.1746170  14.9217420
  30.4102720  48.8064311   9.5591615  30.6499319  49.4382835  10.2370633
  29.5671917  48.4552351   9.8456974  31.5256436  31.4988913  -1.7726580
  30.6485902  31.3777714  -2.1364334  32.0014189  30.7074991  -2.0247692
  41.3929429  39.9541981  14.9971875  40.5056208  39.6167903  15.1198274
  41.9627980  39.2225012  15.2340641  23.0458576  36.2866073   8.3214927
  23.7329616  35.9727803   7.7335942  22.8906705  37.1907437   8.0482178
  27.8493298  31.1756269  12.7499950  27.7651487  30.5681939  12.0150360
  27.0276005  31.6665287  12.7509447  34.9230582  44.6143433  11.9633119
  34.8500754  45.4198405  12.4752423  34.4807975  44.8135399  11.1381140
  34.7120362  43.8515203   5.4735940  33.9287884  44.3936883   5.5674165
  35.4113107  44.3689183   5.8730181  38.0217012  29.6609833   8.1170146
  38.5185712  28.9079795   7.7971216  37.2503994  29.6974149   7.5513355
  45.8746769  35.3650198   9.7588437  45.8636646  36.2474914   9.3882370
  45.0064149  35.0121749   9.5642974  37.3829266  44.5130267  14.1191277
  38.0957238  45.1477732  14.0467179  36.8919294  44.6094133  13.3031279
  39.1046793  38.4181520   5.6908569  38.1703071  38.5382982   5.5213273
  39.2823461  37.5153987   5.4268579  34.6051981  31.8027216   7.8441830
  34.2349768  31.2498256   8.5322736  35.1011073  31.1985349   7.2916830
  42.4919344  34.2598839   6.2258603  42.9579796  35.0926831   6.1518906
  42.9426845  33.7943821   6.9303862  32.4341179  42.2624711  14.9396848
  33.1350639  42.8961194  15.0926242  31.9636294  42.6039442  14.1792487
  40.5595575  40.6042661   3.2244755  40.8355419  40.4899255   4.1338629
  39.6900074  40.2060145   3.1856928  40.4636007  26.6279426  10.2649504
  39.5499087  26.8583653  10.4331711  40.8929108  26.7117870  11.1163537
  40.2342465  34.8169318  12.7649398  39.5813916  35.0645226  12.1101851
  40.6122845  34.0033456  12.4311876  37.1949639  44.8529011   6.8677569
  37.3772034  44.0350667   7.3305321  38.0182625  45.0696704   6.4302459
  37.5291805  43.7797196   4.1292617  38.0579571  43.2689651   3.5162779
  37.7920024  43.4639727   4.9938150  28.0308897  41.7961066  11.8727951
  28.6162334  41.0504754  12.0055855  27.8333736  42.1065022  12.7564615
  30.8847553  44.8312313   6.8890393  30.2157928  45.3158441   6.4054433
  30.7460422  45.0781534   7.8033772  22.6226552  34.3666666  10.5932394
  22.6610652  33.8330257  11.3869512  22.1166845  33.8401871   9.9743371
  35.0252821  46.8656057  13.4873051  35.5771129  47.0287678  14.2522137
  35.3659015  47.4560495  12.8153076  30.0017314  29.2131206  14.0894936
  30.0658641  30.0746037  13.6772334  29.9384435  28.6005208  13.3567295
  29.4769587  31.2854339  17.7367970  30.1041626  30.9031416  18.3505495
  28.6197506  31.0668541  18.1023663  39.8763696  41.6917314  19.3421706
  40.4203599  42.3047272  18.8476661  39.2950540  42.2496893  19.8588719
  26.2535130  33.0930768   3.6686325  26.5488571  32.1841447   3.6153379
  25.3523165  33.0718508   3.3467328  38.1621208  44.8138032  10.4736734
  38.0372348  44.0127772   9.9647679  38.8200300  45.3084226   9.9850704
  29.7829377  31.1686765   9.6513874  29.0615962  31.7822732   9.5121347
  30.5722632  31.7044530   9.5730520  40.2256117  42.6147052  12.1016284
  39.2786452  42.4952403  12.0294610  40.5738890  41.7269550  12.1842545
  32.5855690  28.5041191  15.9254526  33.1090092  28.7503488  16.6880835
  32.3668023  29.3361226  15.5057663  27.9822971  30.7744866   3.7925650
  27.6535677  29.8942245   3.6100756  28.3362342  30.7192534   4.6802040
  37.2302550  42.4099769   8.3020636  37.0827513  41.4816476   8.4828206
  38.0556044  42.4319859   7.8177711  31.0964794  31.0617836   4.1601128
  31.4360867  31.5903757   3.4379736  31.5436915  31.3998242   4.9359695
  40.8336672  43.2328327   9.3885509  41.7583219  43.0271189   9.2509960
  40.6651975  42.9844728  10.2974850  33.7908235  29.4454886  13.6104196
  33.4505056  28.6462699  14.0124876  33.0847242  29.7456597  13.0381029
  34.4424707  26.5304199  12.0631519  35.2650776  26.0564677  11.9410410
  34.6862771  27.3094682  12.5630205  33.0832942  29.5592457   2.3594421
  33.8041304  29.9373710   1.8558138  32.4598246  30.2781334   2.4629399
  37.2264064  30.2637606   3.2952753  37.4427679  31.1462244   2.9941581
  36.7458132  29.8723820   2.5658395  31.9663286  33.2223319   9.8723498
  31.8207867  33.5363622  10.7647779  31.4888489  33.8408220   9.3194396
  33.8259669  30.2125867   9.9204387  33.8121237  29.3166961   9.5836685
  34.5432097  30.2196531  10.5542673  35.6785799  30.6463208  11.9657515
  35.4203577  31.5680278  11.9641845  35.1470840  30.2493642  12.6557979
  40.6231988  43.7513995   4.7447600  40.7968866  43.1860417   3.9921453
  41.1160879  44.5514890   4.5627090  26.4408948  35.7628664  12.8111159
  25.8962416  36.5388472  12.9431433  27.3188298  36.1099468  12.6530280
  33.2296565  29.0940248   5.1891957  33.3512476  28.1656894   5.3882845
  32.9398607  29.1078934   4.2770273  36.0987755  26.7795158   8.3258677
  36.1209452  26.8434491   7.3710657  36.5155814  25.9399667   8.5199184
  46.4771379  36.5150418   6.3637900  46.9202525  35.7657743   5.9657023
  45.5997890  36.5060554   5.9811632  41.6107161  43.0680759   1.8444498
  42.3058065  43.6887452   2.0631813  41.9530311  42.2176110   2.1196876
  27.2274970  34.8898560  15.7041316  26.4856706  35.0381195  16.2905946
  26.9067714  35.1506826  14.8408065  43.5098584  40.5180465   3.3731829
  44.0349908  40.8567737   2.6481149  43.4220936  39.5827480   3.1894964
  35.1718633  44.4314538  15.5021706  35.4805759  44.1863685  16.3744405
  35.9694115  44.6361177  15.0140576  35.1939245  46.5852448   7.7327082
  34.7544235  46.0928827   8.4259939  35.9447362  46.0425416   7.4919158
  27.6731584  42.7763989   7.7351710  28.4989603  42.4767761   7.3550354
  27.3225636  42.0071611   8.1841499  32.6413117  42.1290457   9.8049384
  32.0193126  41.4661162   9.5051612  33.3117984  42.1551589   9.1223032
  25.8740189  40.6950315   8.6940644  25.0372097  40.2672490   8.5124645
  25.8463834  40.8882759   9.6311435  32.7137644  30.6072245  19.3981890
  32.7625800  31.4834368  19.0159660  33.2560158  30.0649638  18.8253533
  43.1992490  41.1513368  18.6783027  42.4088034  41.1337507  18.1387527
  42.9625844  41.6901662  19.4332064  43.3190365  38.0005835  15.9915756
  43.3688370  37.8355842  16.9331279  43.2104288  37.1333094  15.6013636
  32.2026624  40.6794380   3.2807845  32.3514744  41.3629845   2.6274517
  33.0093067  40.6599470   3.7957300  40.6094127  33.9836763  17.3075062
  41.5103990  33.8443228  17.0159060  40.6842102  34.1491218  18.2473240
  34.9436933  31.3603617  16.1528249  34.0740242  31.6537183  15.8810837
  35.1796413  31.9444062  16.8735512  44.8208562  40.4202776  16.2357777
  44.5293370  40.7832757  17.0721238  44.2080693  39.7069784  16.0571109
  46.0204244  37.9855656   8.7560347  46.8551135  38.4245460   8.9197908
  46.1563373  37.5094309   7.9368593  43.0695750  35.5435391  14.7037835
  43.5449872  35.7363037  13.8956687  42.1461315  35.5994577  14.4581219
  29.9579257  36.7059558   4.2868914  29.7125299  35.8021888   4.4849124
  30.1275171  36.7076708   3.3448392  37.6475966  27.5783234  13.6693669
  38.1657910  28.3144261  13.3440158  37.2931099  27.8847228  14.5040428
  29.2274904  32.4387916   1.7855075  28.5344149  32.5132271   1.1295111
  28.9826656  31.6748259   2.3076592  37.8988561  23.9983517   9.1894566
  38.1790314  23.3306706   9.8154992  38.6839168  24.1912612   8.6769230
  35.7022029  43.1742511   0.7519592  35.1295996  43.7932698   0.2990064
  36.2754823  43.7241872   1.2859514  41.7697419  32.4201151  12.9366141
  42.7214842  32.5199249  12.9578365  41.6000869  31.6279419  13.4464225
  39.7911798  29.5056734  13.1225542  39.1961731  29.7861747  12.4272030
  39.5061495  29.9950635  13.8942283  38.9219289  43.4579661   1.8828174
  39.8549962  43.3925223   2.0861050  38.8342502  44.2935928   1.4242707
  44.2485497  35.6407271  12.0508440  44.2161817  34.7023271  12.2368124
  44.8586120  35.7191307  11.3174265  36.0868828  34.5103324  -1.9064355
  37.0327932  34.3809532  -1.8375937  35.7083073  33.7717985  -1.4294927
  44.3979985  32.4318314  12.0966724  43.8819034  31.6476771  11.9096653
  45.2819934  32.1037031  12.2613243  42.0590712  26.1759330   8.0562536
  41.8615533  25.8674418   8.9405868  42.6690418  26.9020968   8.1860466
  50.0662047  36.7023277  11.1914477  50.7965435  36.4408566  11.7522181
  49.4568992  35.9651999  11.2316545  48.1477344  34.8431140  11.7888928
  47.4210507  34.7087105  11.1805420  47.7324631  35.1507969  12.5945647
  34.2711745  32.4353300  -1.9709470  33.3643200  32.1386413  -1.8946757
  34.5487726  32.1383118  -2.8375184  25.1889685  33.7559663   8.4789576
  24.8692470  32.9024972   8.1863950  24.6423113  33.9708241   9.2347543
  28.9669593  36.4722104  12.1959083  29.1855603  37.4039212  12.2147116
  29.3795367  36.1130079  12.9813887  35.8873811  26.9790190   4.1834771
  35.0774539  26.6337275   4.5590017  36.5758227  26.6697733   4.7722383
  37.8164359  26.0568236   5.8059068  38.3695397  26.4763690   6.4649091
  38.0534445  25.1303985   5.8482024  25.0577945  37.3762575  10.4482698
  24.3641417  36.9616528   9.9352652  25.8050936  37.4183111   9.8516117
  41.1943166  28.1668762   5.3137732  40.6141835  28.8253566   4.9315784
  40.9279099  27.3446106   4.9025149  39.6446732  27.5673819   7.5159052
  40.1446511  27.6790354   6.7073371  40.2882340  27.2634872   8.1559861
  26.9714688  37.3080829   8.3248713  26.9485376  37.4068516   7.3730596
  27.2815324  38.1545979   8.6465879  29.6302066  39.3656984  12.4395327
  30.5845319  39.3340926  12.3725259  29.4314589  38.9047607  13.2545553
  30.2201448  37.9358100  15.0066125  31.0394337  38.4302178  15.0300962
  30.4938255  37.0190068  14.9783692  39.9768044  30.3268852   4.3694080
  39.0893899  30.6118503   4.1514275  40.3922033  30.1662615   3.5221357
  43.3282580  30.3515373   8.0848419  44.1042970  30.8411825   8.3573036
  42.6030714  30.7773427   8.5420289  45.7655139  31.0642992   9.1422360
  46.3599629  30.8238728   8.4315668  45.8381722  30.3450123   9.7695896
  27.9852294  44.9076603   9.4565525  27.8506762  44.1477004   8.8903523
  27.5684357  45.6317503   8.9894314  39.1211257  40.0913527  -1.5357900
  39.8247108  40.2963529  -0.9200244  38.3973906  40.6590289  -1.2708816
  39.9509068  35.8423388   4.5844370  39.8944269  36.2991939   3.7452003
  40.5037410  35.0814073   4.4067213  43.7613874  31.6313120   5.4094490
  43.5050808  31.2309755   6.2402698  43.1366742  32.3456914   5.2844629
  48.0726211  34.3709193   7.9165781  47.5125769  34.4402382   8.6897343
  47.4669715  34.1950178   7.1965278  31.1421420  45.8045920   9.6683968
  31.0253804  46.7491353   9.5662658  30.3213867  45.5019482  10.0569767
  41.0297955  40.5296056   0.5140560  41.8643559  40.0977254   0.3318035
  40.8682298  40.3578070   1.4417455  40.6843847  37.0328169   1.8796900
  40.6292651  36.8672441   0.9385344  40.0589902  37.7404202   2.0359089
  25.4736362  32.2696234  15.7058322  26.1195226  31.7595188  16.1945547
  25.2653513  33.0064915  16.2801747  33.9939972  26.5336278   1.4582218
  33.9818642  27.4778118   1.6150489  34.8863394  26.3506424   1.1641679
  32.1675934  46.4574182  12.8839896  33.0703181  46.4897792  13.2006391
  31.9413304  45.5274633  12.8986232  33.9229536  45.2105169   9.5449975
  32.9725167  45.2107030   9.4314347  34.2262023  44.4637903   9.0286009
  37.8092092  23.1279055   5.7128155  37.0424488  22.5737542   5.8584837
  38.2202797  23.2000924   6.5742306  29.8133853  29.4163851  19.8033336
  30.6765315  29.0600655  20.0136661  29.2399264  29.0777745  20.4908740
  49.6582230  51.0465707  10.6095737  50.2960640  50.9272454   9.9059077
  49.5403073  51.9946551  10.6683689  46.4671936  50.9993135  10.5457262
  46.1290448  50.8834200   9.6577797  47.3361704  50.5984300  10.5258268
  42.3258752  52.8528611   6.5354153  41.7623617  52.7618548   5.7670440
  42.2111147  52.0328516   7.0156645  46.9491719  52.1527987  16.5043467
  46.9380360  51.7580785  15.6323971  47.1112359  51.4194059  17.0977239
  39.8723184  54.3479803   9.3738373  40.6644476  54.0070628   8.9584672
  40.1119834  54.4574778  10.2940526  43.6698980  54.9365099  15.4522651
  43.3788846  55.8410729  15.3369318  44.3055965  54.9781626  16.1666721
  44.5955187  52.3141947  12.0424011  45.1918759  52.0897970  11.3280974
  44.6530159  51.5726693  12.6449459  49.2123498  48.7717161   7.6848945
  49.9986588  48.3536584   7.3339362  49.4762203  49.6763253   7.8530593
  54.6131926  48.7092394   8.5881924  55.3457097  48.1391611   8.8219753
  53.8571281  48.3213994   9.0288429  46.2308045  51.1319636   5.7845266
  45.8666252  50.6050256   6.4958187  47.0875161  50.7418105   5.6111751
  52.1357346  42.4213968  13.0476532  51.8040671  43.2909379  12.8237747
  51.5402959  42.1050252  13.7270563  48.6288865  54.6226514  12.4472445
  48.3289588  55.5251553  12.3388252  48.2839925  54.3558697  13.2993598
  42.0801347  51.0740311   8.4809149  41.1551843  50.9416525   8.6886841
  42.3285760  51.8534530   8.9779092  52.0286009  47.1409054  10.1269882
  51.1202887  47.0724463   9.8328643  51.9773605  47.6180999  10.9551708
  39.4410158  50.7173585   9.3152938  39.5702539  50.9708063  10.2292350
  38.7607609  51.3101293   8.9957593  46.1026875  48.5598700  18.0704779
  45.3260209  49.1192620  18.0607644  46.7417438  49.0455483  18.5919650
  53.8947656  45.3425493  11.9047756  53.2522036  45.6358026  11.2587551
  53.3902584  45.2278413  12.7100953  44.3573247  51.3684153  17.6322746
  45.0987932  51.9069197  17.3557570  43.6510233  51.9950442  17.7894298
  49.8328587  53.5113294  16.2294908  50.2411943  53.0695704  15.4849540
  49.1105848  52.9365921  16.4829101  46.1859657  48.4485900  13.6028465
  47.0320852  48.8725314  13.7463114  46.1258295  47.7919525  14.2967028
  50.1557402  54.0714484   9.9847197  49.5266264  54.2360198   9.2823265
  49.7683064  54.4856094  10.7558161  49.3359102  46.1090269  15.2609639
  49.0920034  46.8632329  14.7243914  49.6119033  46.4875616  16.0956886
  51.2897565  52.6528881  13.9386904  51.5014460  53.2960641  13.2621285
  51.2427313  51.8191198  13.4708834  48.8923794  45.2646702  10.8423476
  48.0308273  45.5627955  11.1340214  48.9186229  45.4817101   9.9104509
  42.6009444  53.3560374  10.1877045  43.1710802  53.7847642   9.5494530
  43.1917556  53.0742959  10.8861231  43.0934611  48.5223801  18.4338056
  42.4633272  49.2040082  18.6673453  42.9870699  48.4106883  17.4891195
  38.3879583  48.1895597   9.3603981  37.5978637  48.4453126   8.8844091
  38.8790831  49.0043935   9.4656021  52.4043393  55.5300837  12.1109261
  53.2260837  55.1281024  11.8291943  52.4005796  55.4269071  13.0625377
  40.3394329  48.5540177   6.3187457  39.5425492  48.6658871   6.8370953
  40.1119921  48.8926829   5.4528348  46.1699996  55.0784880  14.2669972
  46.2344429  55.5405287  15.1028144  45.4610920  54.4482245  14.3952282
  36.6717286  48.4426088  11.7918971  36.9225325  49.3273098  12.0576547
  37.2076835  48.2630689  11.0194063  42.3715354  42.8244567  20.7963308
  41.9782299  42.2710766  21.4710952  43.1881494  43.1355146  21.1869825
  45.2883315  44.2402446  18.3883564  46.0293028  44.8409599  18.3088027
  45.5201238  43.4980084  17.8301607  40.4324653  49.4258814  16.6661794
  40.3178168  48.5244071  16.9668893  39.5769170  49.6722510  16.3146610
  47.5116490  57.3676554  18.2649294  47.0680345  56.5812932  17.9470199
  48.1733704  57.5555704  17.5993185  42.2703612  58.8972356  12.7909973
  42.8211037  58.7689419  12.0186967  41.4315088  59.1967245  12.4404866
  49.6097729  57.6479354  16.2930696  49.5916204  58.4688235  15.8010965
  50.5317649  57.5233429  16.5180837  46.0670783  55.1623483  17.1354204
  46.5999119  54.4011772  16.9053512  45.5384864  54.8697135  17.8778359
  49.2340478  40.2683549  12.6647846  48.8904747  41.1585191  12.5886956
  49.6019440  40.0785207  11.8017431  37.3026328  52.5917080   5.4836448
  38.1401550  53.0014088   5.2670156  37.4804596  51.6516522   5.4536642
  46.7837871  45.1041861   6.2305519  45.9279468  44.7148712   6.0511158
  47.1964823  45.1833822   5.3705305  48.3137018  42.6388204  10.6297079
  47.8101814  42.6018340   9.8164884  48.6067625  43.5480947  10.6893736
  44.5579904  42.7226934   9.6363261  45.4232901  42.5269743   9.2769150
  44.6257413  42.4937286  10.5632618  52.4116341  52.4858496   9.7640062
  51.7540016  53.1757758   9.8520191  53.2156741  52.8754928  10.1074049
  42.1642223  44.9529142   7.0079628  42.7385975  44.7304324   6.2752821
  42.7513205  45.0217837   7.7608229  51.2221800  50.8402869   7.8144004
  51.7353682  51.4732861   8.3165714  51.8723024  50.2404065   7.4487364
  44.4664891  41.8270391   5.7354697  43.8129303  41.5119408   5.1111312
  44.4245365  41.2046131   6.4614520  47.7002631  48.3152325  10.0602345
  46.7825192  48.5367272   9.9024033  48.1162775  48.3898635   9.2014052
  50.9316516  46.7500856   7.1723814  50.1939273  46.2378243   7.5034057
  51.1843290  46.3101238   6.3607091  51.0328143  39.5277108   7.7665583
  51.3387020  38.6674472   7.4791499  51.7580748  40.1194729   7.5664577
  37.3252499  49.9307795   6.1547181  37.1276899  49.3377156   5.4298248
  36.7699163  49.6260005   6.8723120  45.3049223  49.8230902   8.2741775
  45.3597833  48.8704738   8.1984251  44.4940425  49.9790341   8.7583073
  43.2441583  48.4407961   6.0332153  42.4309449  48.7402132   6.4397346
  43.7400577  48.0463650   6.7506636  48.8415795  48.9049786  14.8647047
  49.1965182  49.1321259  15.7241513  49.4887926  49.2368163  14.2424303
  43.5115962  55.3128747   7.7628381  44.3056560  54.8179067   7.5610956
  42.8007654  54.7846610   7.3996086  48.3310806  57.6946843  12.1140748
  48.3847828  58.2637779  12.8818464  47.4625587  57.8648728  11.7494786
  39.8198725  49.4571829   3.8388133  38.8896313  49.3956284   4.0558096
  39.9156197  48.9347782   3.0424775  39.7384274  45.9826642   6.4266375
  39.9991091  46.8971975   6.3175536  40.5601446  45.5151084   6.5762988
  41.2109199  47.3964399  13.5965200  41.8832253  47.1881761  12.9477849
  40.3838986  47.1986485  13.1570432  55.4598461  54.1368449  13.1140533
  55.6534351  55.0414260  13.3599808  55.3599079  53.6775868  13.9479118
  47.1134772  44.0226340  15.6130861  46.4662687  44.7216290  15.5195337
  47.8835787  44.4562484  15.9807109  50.5213569  54.2875192  18.6881414
  50.3699076  54.0585744  17.7711498  50.5118249  55.2445793  18.7012759
  47.2898906  51.8607105  13.6727680  48.2190966  52.0118264  13.4996648
  46.8689936  51.9491126  12.8176327  46.0887238  55.8857769  11.4426218
  45.9498323  55.5176554  12.3152156  45.3001834  56.4005409  11.2710176
  47.6392453  55.2639372   8.8315056  47.3042285  55.2240142   9.7272706
  47.1396398  54.5984088   8.3585466  41.6136697  50.6707002  14.3567637
  41.4756495  49.9387241  14.9579176  42.5241620  50.5815902  14.0751825
  44.2418997  50.3826961  13.8451317  44.9518616  49.7420153  13.8037935
  44.1988306  50.6339856  14.7677497  52.2305776  57.3194315  16.7657896
  52.1718322  56.6353535  16.0988479  52.6325294  58.0613305  16.3138522
  42.9547931  47.3692179  15.6646956  42.4185288  46.9182918  16.3168552
  42.3664640  47.5038088  14.9217420  52.2323183  55.2833899  14.9971875
  51.3449962  54.9459820  15.1198274  52.8021734  54.5516930  15.2340641
  33.8852330  51.6157990   8.3214927  34.5723370  51.3019720   7.7335942
  33.7300459  52.5199355   8.0482178  38.6887053  46.5048187  12.7499950
  38.6045241  45.8973856  12.0150360  37.8669759  46.9957205  12.7509447
  45.7624337  59.9435351  11.9633119  45.6894508  60.7490322  12.4752423
  45.3201730  60.1427317  11.1381140  48.8610766  44.9901750   8.1170146
  49.3579466  44.2371713   7.7971216  48.0897748  45.0266067   7.5513355
  48.2223020  59.8422185  14.1191277  48.9350992  60.4769650  14.0467179
  47.7313049  59.9386051  13.3031279  45.4445735  47.1319133   7.8441830
  45.0743523  46.5790174   8.5322736  45.9404828  46.5277267   7.2916830
  43.2734934  57.5916628  14.9396848  43.9744393  58.2253111  15.0926242
  42.8030049  57.9331360  14.1792487  51.3029761  41.9571344  10.2649504
  50.3892841  42.1875571  10.4331711  51.7322863  42.0409788  11.1163537
  51.0736220  50.1461236  12.7649398  50.4207670  50.3937143  12.1101851
  51.4516600  49.3325374  12.4311876  47.1223793  50.8881047  19.2515436
  46.4464430  50.7875176  19.9217811  47.9451427  50.7320261  19.7151433
  38.8702652  57.1252983  11.8727951  39.4556089  56.3796671  12.0055855
  38.6727490  57.4356940  12.7564615  33.4620307  49.6958584  10.5932394
  33.5004406  49.1622174  11.3869512  32.9560599  49.1693789   9.9743371
  45.8646576  62.1947974  13.4873051  46.4164884  62.3579596  14.2522137
  46.2052769  62.7852412  12.8153076  40.8411069  44.5423124  14.0894936
  40.9052395  45.4037955  13.6772334  40.7778189  43.9297126  13.3567295
  40.3163341  46.6146257  17.7367970  40.9435380  46.2323334  18.3505495
  39.4591260  46.3960459  18.1023663  50.7157450  57.0209232  19.3421706
  51.2597354  57.6339190  18.8476661  50.1344295  57.5788810  19.8588719
  37.0928884  48.4222686   3.6686325  37.3882325  47.5133364   3.6153379
  36.1916920  48.4010425   3.3467328  40.6223131  46.4978682   9.6513874
  39.9009717  47.1114650   9.5121347  41.4116387  47.0336447   9.5730520
  51.0649871  57.9438970  12.1016284  50.1180207  57.8244321  12.0294610
  51.4132644  57.0561468  12.1842545  43.4249445  43.8333109  15.9254526
  43.9483847  44.0795405  16.6880835  43.2061778  44.6653144  15.5057663
  38.8216726  46.1036783   3.7925650  38.4929432  45.2234162   3.6100756
  39.1756096  46.0484452   4.6802040  41.9358549  46.3909753   4.1601128
  42.2754621  46.9195675   3.4379736  42.3830669  46.7290159   4.9359695
  44.6301990  44.7746804  13.6104196  44.2898810  43.9754617  14.0124876
  43.9240996  45.0748515  13.0381029  45.2818462  41.8596116  12.0631519
  46.1044531  41.3856595  11.9410410  45.5256525  42.6386600  12.5630205
  43.9226696  44.8884375   2.3594421  44.6435059  45.2665628   1.8558138
  43.2992000  45.6073252   2.4629399  42.8057040  48.5515237   9.8723498
  42.6601621  48.8655540  10.7647779  42.3282244  49.1700137   9.3194396
  44.6653423  45.5417785   9.9204387  44.6514992  44.6458878   9.5836685
  45.3825851  45.5488449  10.5542673  46.5179554  45.9755125  11.9657515
  46.2597332  46.8972196  11.9641845  45.9864594  45.5785560  12.6557979
  37.2802702  51.0920581  12.8111159  36.7356171  51.8680389  12.9431433
  38.1582052  51.4391386  12.6530280  44.0690319  44.4232165   5.1891957
  44.1906230  43.4948812   5.3882845  43.7792362  44.4370851   4.2770273
  46.9381510  42.1087076   8.3258677  46.9603206  42.1726409   7.3710657
  47.3549569  41.2691584   8.5199184  38.0668724  50.2190478  15.7041316
  37.3250460  50.3673113  16.2905946  37.7461469  50.4798743  14.8408065
  46.0112387  59.7606456  15.5021706  46.3199513  59.5155603  16.3744405
  46.8087869  59.9653094  15.0140576  38.5125338  58.1055906   7.7351710
  39.3383358  57.8059678   7.3550354  38.1619390  57.3363529   8.1841499
  43.4806871  57.4582375   9.8049384  42.8586880  56.7953080   9.5051612
  44.1511738  57.4843507   9.1223032  36.7133943  56.0242233   8.6940644
  35.8765851  55.5964407   8.5124645  36.6857589  56.2174676   9.6311435
  43.5531399  45.9364163  19.3981890  43.6019554  46.8126285  19.0159660
  44.0953913  45.3941556  18.8253533  54.0386244  56.4805286  18.6783027
  53.2481788  56.4629425  18.1387527  53.8019599  57.0193580  19.4332064
  54.1584119  53.3297752  15.9915756  54.2082124  53.1647760  16.9331279
  54.0498043  52.4625011  15.6013636  51.4487882  49.3128680  17.3075062
  52.3497745  49.1735145  17.0159060  51.5235856  49.4783135  18.2473240
  45.7830687  46.6895535  16.1528249  44.9133997  46.9829101  15.8810837
  46.0190168  47.2735980  16.8735512  55.6602316  55.7494694  16.2357777
  55.3687125  56.1124674  17.0721238  55.0474448  55.0361702  16.0571109
  53.9089504  50.8727308  14.7037835  54.3843626  51.0654955  13.8956687
  52.9855070  50.9286494  14.4581219  48.4869721  42.9075152  13.6693669
  49.0051665  43.6436179  13.3440158  48.1324854  43.2139145  14.5040428
  40.0668659  47.7679833   1.7855075  39.3737904  47.8424188   1.1295111
  39.8220411  47.0040177   2.3076592  48.7382315  39.3275435   9.1894566
  49.0184069  38.6598624   9.8154992  49.5232922  39.5204530   8.6769230
  52.6091173  47.7493069  12.9366141  53.5608596  47.8491166  12.9578365
  52.4394624  46.9571337  13.4464225  50.6305553  44.8348652  13.1225542
  50.0355485  45.1153664  12.4272030  50.3455250  45.3242553  13.8942283
  55.0879251  50.9699188  12.0508440  55.0555571  50.0315189  12.2368124
  55.6979875  51.0483225  11.3174265  55.2373740  47.7610232  12.0966724
  54.7212788  46.9768688  11.9096653  56.1213688  47.4328948  12.2613243
  52.8984467  41.5051247   8.0562536  52.7009288  41.1966335   8.9405868
  53.5084172  42.2312886   8.1860466  58.9871098  50.1723058  11.7888928
  58.2604262  50.0379023  11.1805420  58.5718385  50.4799886  12.5945647
  46.8101275  53.8912987  19.5536302  47.7304284  54.0691586  19.7476348
  46.7750858  52.9469033  19.4016001  36.0283440  49.0851581   8.4789576
  35.7086224  48.2316889   8.1863950  35.4816868  49.3000159   9.2347543
  39.8063347  51.8014022  12.1959083  40.0249357  52.7331130  12.2147116
  40.2189121  51.4421996  12.9813887  46.7267565  42.3082107   4.1834771
  45.9168293  41.9629192   4.5590017  47.4151982  41.9989651   4.7722383
  48.6558113  41.3860154   5.8059068  49.2089152  41.8055608   6.4649091
  48.8928200  40.4595902   5.8482024  44.6791213  47.3747228  21.5861832
  44.5787939  48.3241585  21.5173923  44.4612755  47.0465467  20.7137902
  35.8971700  52.7054492  10.4482698  35.2035171  52.2908445   9.9352652
  36.6444691  52.7475029   9.8516117  52.0336920  43.4960679   5.3137732
  51.4535589  44.1545483   4.9315784  51.7672853  42.6738024   4.9025149
  50.4840487  42.8965737   7.5159052  50.9840265  43.0082272   6.7073371
  51.1276095  42.5926790   8.1559861  44.5422483  50.8044367  20.4026893
  44.0589564  51.6044727  20.6090782  44.6283422  50.8152311  19.4494337
  37.8108442  52.6372746   8.3248713  37.7879130  52.7360434   7.3730596
  38.1209079  53.4837897   8.6465879  40.4695820  54.6948901  12.4395327
  41.4239074  54.6632844  12.3725259  40.2708344  54.2339525  13.2545553
  41.0595202  53.2650017  15.0066125  41.8788091  53.7594096  15.0300962
  41.3332010  52.3481985  14.9783692  54.1676335  45.6807291   8.0848419
  54.9436725  46.1703743   8.3573036  53.4424469  46.1065345   8.5420289
  56.6048893  46.3934910   9.1422360  57.1993384  46.1530646   8.4315668
  56.6775477  45.6742040   9.7695896  38.8246049  60.2368521   9.4565525
  38.6900517  59.4768922   8.8903523  38.4078111  60.9609421   8.9894314
  36.3130116  47.5988151  15.7058322  36.9588980  47.0887105  16.1945547
  36.1047268  48.3356833  16.2801747  48.8383509  54.6668999  21.2050462
  49.7074668  54.8409651  20.8437097  48.3590260  55.4863416  21.0826192
  44.8333727  41.8628196   1.4582218  44.8212397  42.8070036   1.6150489
  45.7257149  41.6798341   1.1641679  43.0069689  61.7866100  12.8839896
  43.9096936  61.8189710  13.2006391  42.7807059  60.8566551  12.8986232
  48.6485846  38.4570972   5.7128155  47.8818242  37.9029459   5.8584837
  49.0596551  38.5292841   6.5742306  40.6527607  44.7455768  19.8033336
  41.5159069  44.3892573  20.0136661  40.0793018  44.4069663  20.4908740
  56.9420629  63.8890618  18.0704779  56.1653964  64.4484538  18.0607644
  57.5811193  64.3747401  18.5919650  53.9328365  63.8515719  18.4338056
  53.3027026  64.5332000  18.6673453  53.8264453  63.7398801  17.4891195
  53.2109108  58.1536485  20.7963308  52.8176054  57.6002684  21.4710952
  54.0275249  58.4647063  21.1869825  56.1277069  59.5694364  18.3883564
  56.8686783  60.1701517  18.3088027  56.3594992  58.8272002  17.8301607
  51.2718407  64.7550731  16.6661794  51.1571922  63.8535989  16.9668893
  50.4162925  65.0014428  16.3146610  57.9528526  59.3518258  15.6130861
  57.3056441  60.0508207  15.5195337  58.7229541  59.7854402  15.9807109
  57.9617547  66.2172965  19.2515436  57.2858184  66.1167094  19.9217811
  58.7845181  66.0612178  19.7151433  51.6804823  59.8715042  14.0894936
  51.7446150  60.7329873  13.6772334  51.6171944  59.2589043  13.3567295
  51.1557096  61.9438174  17.7367970  51.7829135  61.5615252  18.3505495
  50.2985015  61.7252376  18.1023663  54.2643199  59.1625027  15.9254526
  54.7877601  59.4087323  16.6880835  54.0455532  59.9945061  15.5057663
  54.3925153  61.2656080  19.3981890  54.4413309  62.1418203  19.0159660
  54.9347667  60.7233473  18.8253533  56.6224442  62.0187453  16.1528249
  55.7527751  62.3121019  15.8810837  56.8583922  62.6027898  16.8735512
  55.5184967  62.7039145  21.5861832  55.4181694  63.6533502  21.5173923
  55.3006509  62.3757384  20.7137902  55.3816237  66.1336284  20.4026893
  54.8983319  66.9336644  20.6090782  55.4677176  66.1444229  19.4494337
  47.1523871  62.9280069  15.7058322  47.7982735  62.4179023  16.1945547
  46.9441022  63.6648751  16.2801747  51.4921362  60.0747686  19.8033336
  52.3552823  59.7184491  20.0136661  50.9186773  59.7361581  20.4908740
  36.6722737  19.0446759   4.9894601  36.2286591  18.2583137   4.6715506
  37.3339951  19.2325909   4.3238492  38.7703975  19.3249559   3.0176002
  38.7522451  20.1458440   2.5256271  39.6923895  19.2003634   3.2426143
  39.6819816  15.9645397   5.4126720  39.5305323  15.7355949   4.4956804
  39.6724496  16.9215998   5.4258065  41.3912023  18.9964520   3.4903202
  41.3324569  18.3123740   2.8233785  41.7931541  19.7383510   3.0383828
  41.3929430  16.9604103   1.7217182  40.5056209  16.6230025   1.8443581
  41.9627981  16.2287135   1.9585947  36.2830040  12.5651252   5.9760742
  35.6070677  12.4645381   6.6463117  37.1057673  12.4090466   6.4396739
  35.0252822  23.8718179   0.2118358  35.5771130  24.0349801   0.9767443
  35.3659016  24.4622617  -0.4601617  39.8763697  18.6979437   6.0667013
  40.4203601  19.3109395   5.5721967  39.2950542  19.2559015   6.5834026
  35.1718634  21.4376661   2.2267012  35.4805760  21.1925808   3.0989712
  35.9694116  21.6423299   1.7385883  43.1992491  18.1575491   5.4028334
  42.4088035  18.1399630   4.8632833  42.9625846  18.6963785   6.1577370
  43.3190366  15.0067957   2.7161062  43.3688371  14.8417965   3.6576585
  43.2104290  14.1395216   2.3258943  44.8208563  17.4264899   2.9603084
  44.5293371  17.7894879   3.7966545  44.2080694  16.7131907   2.7816416
  35.9707521  15.5683192   6.2781608  36.8910531  15.7461791   6.4721655
  35.9357104  14.6239238   6.1261307  37.9989755  16.3439204   7.9295769
  38.8680915  16.5179856   7.5682404  37.5196507  17.1633620   7.8071498
  49.6582231  28.0527830  -2.6658956  50.2960641  27.9334577  -3.3695616
  49.5403074  29.0008674  -2.6071004  46.4671937  28.0055258  -2.7297432
  46.1290449  27.8896322  -3.6176897  47.3361706  27.6046423  -2.7496426
  46.9491720  29.1590109   3.2288774  46.9380361  28.7642908   2.3569278
  47.1112360  28.4256182   3.8222545  39.8723185  31.3541926  -3.9016320
  40.6644477  31.0132750  -4.3170021  40.1119835  31.4636901  -2.9814167
  43.6698982  31.9427221   2.1767958  43.3788848  32.8472852   2.0614624
  44.3055966  31.9843749   2.8912027  44.5955188  29.3204070  -1.2330683
  45.1918761  29.0960092  -1.9473720  44.6530160  28.5788815  -0.6305235
  48.6288867  31.6288637  -0.8282248  48.3289590  32.5313676  -0.9366441
  48.2839926  31.3620820   0.0238904  42.0801348  28.0802434  -4.7945544
  41.1551845  27.9478648  -4.5867852  42.3285761  28.8596653  -4.2975602
  39.4410159  27.7235707  -3.9601755  39.5702540  27.9770186  -3.0462343
  38.7607610  28.3163415  -4.2797100  46.1026876  25.5660822   4.7950086
  45.3260210  26.1254743   4.7852951  46.7417439  26.0517605   5.3164956
  44.3573249  28.3746276   4.3568053  45.0987933  28.9131320   4.0802877
  43.6510234  29.0012565   4.5139605  49.8328588  30.5175416   2.9540215
  50.2411944  30.0757827   2.2094847  49.1105850  29.9428044   3.2074408
  46.1859658  25.4548023   0.3273772  47.0320853  25.8787437   0.4708421
  46.1258296  24.7981647   1.0212335  50.1557403  31.0776607  -3.2907496
  49.5266265  31.2422321  -3.9931429  49.7683065  31.4918216  -2.5196532
  49.3359104  23.1152391   1.9854945  49.0920035  23.8694452   1.4489221
  49.6119034  23.4937739   2.8202192  51.2897566  29.6591004   0.6632211
  51.5014462  30.3022764  -0.0133408  51.2427315  28.8253320   0.1954141
  48.8923795  22.2708824  -2.4331217  48.0308274  22.5690078  -2.1414479
  48.9186230  22.4879223  -3.3650184  42.6009446  30.3622497  -3.0877648
  43.1710803  30.7909765  -3.7260164  43.1917558  30.0805081  -2.3893462
  43.0934612  25.5285924   5.1583363  42.4633273  26.2102205   5.3918760
  42.9870700  25.4169006   4.2136501  52.4043394  32.5362959  -1.1645432
  53.2260838  32.1343147  -1.4462750  52.4005797  32.4331193  -0.2129316
  46.1699998  32.0847003   0.9915279  46.2344430  32.5467410   1.8273450
  45.4610922  31.4544367   1.1197588  42.3715355  19.8306690   7.5208614
  41.9782301  19.2772888   8.1956258  43.1881495  20.1417268   7.9115132
  45.2883316  21.2464569   5.1128871  46.0293029  21.8471722   5.0333333
  45.5201239  20.5042207   4.5546913  40.4324654  26.4320936   3.3907100
  40.3178169  25.5306193   3.6914199  39.5769172  26.6784633   3.0391917
  47.5116492  34.3738677   4.9894601  47.0680346  33.5875055   4.6715506
  48.1733705  34.5617827   4.3238492  42.2703613  35.9034478  -0.4844720
  42.8211038  35.7751541  -1.2567727  41.4315089  36.2029367  -0.8349828
  49.6097730  34.6541476   3.0176002  49.5916205  35.4750358   2.5256271
  50.5317650  34.5295552   3.2426143  46.0670784  32.1685606   3.8599511
  46.5999121  31.4073894   3.6298819  45.5384865  31.8759258   4.6023665
  52.4116343  29.4920619  -3.5114631  51.7540017  30.1819880  -3.4234502
  53.2156742  29.8817051  -3.1680645  47.7002632  25.3214447  -3.2152349
  46.7825194  25.5429394  -3.3730661  48.1162776  25.3960758  -4.0740641
  45.3049224  26.8293024  -5.0012919  45.3597834  25.8766861  -5.0770442
  44.4940426  26.9852463  -4.5171620  48.8415796  25.9111908   1.5892354
  49.1965184  26.1383382   2.4486820  49.4887927  26.2430285   0.9669609
  42.7355659  23.0188439  -1.6261305  43.3755038  22.8777199  -2.3238342
  41.9033190  22.7322953  -2.0022703  43.5115963  32.3190870  -5.5126313
  44.3056561  31.8241190  -5.7143738  42.8007655  31.7908733  -5.8758607
  48.3310807  34.7008965  -1.1613945  48.3847830  35.2699902  -0.3936229
  47.4625589  34.8710850  -1.5259908  41.2109201  24.4026522   0.3210506
  41.8832254  24.1943884  -0.3276845  40.3838987  24.2048608  -0.1184261
  55.4598462  31.1430572  -0.1614160  55.6534352  32.0476382   0.0845115
  55.3599080  30.6837991   0.6724425  47.1134773  21.0288462   2.3376167
  46.4662688  21.7278412   2.2440644  47.8835788  21.4624606   2.7052415
  50.5213571  31.2937315   5.4126720  50.3699077  31.0647866   4.4956804
  50.5118250  32.2507916   5.4258065  47.2898907  28.8669227   0.3972987
  48.2190967  29.0180387   0.2241954  46.8689937  28.9553248  -0.4578367
  46.0887239  32.8919892  -1.8328475  45.9498325  32.5238676  -0.9602537
  45.3001835  33.4067531  -2.0044518  47.6392454  32.2701495  -4.4439638
  47.3042287  32.2302264  -3.5481988  47.1396400  31.6046210  -4.9169227
  41.6136698  27.6769125   1.0812943  41.4756496  26.9449363   1.6824483
  42.5241621  27.5878025   0.7997131  44.2418999  27.3889084   0.5696623
  44.9518617  26.7482276   0.5283242  44.1988307  27.6401979   1.4922804
  52.2305777  34.3256437   3.4903202  52.1718324  33.6415657   2.8233785
  52.6325296  35.0675427   3.0383828  42.9547933  24.3754302   2.3892263
  42.4185290  23.9245040   3.0413859  42.3664641  24.5100211   1.6462727
  52.2323185  32.2896021   1.7217182  51.3449963  31.9521943   1.8443581
  52.8021736  31.5579052   1.9585947  38.6887054  23.5110309  -0.5254743
  38.6045243  22.9035979  -1.2604333  37.8669760  24.0019328  -0.5245247
  45.7624338  36.9497473  -1.3121575  45.6894510  37.7552445  -0.8002270
  45.3201731  37.1489439  -2.1373553  48.2223022  36.8484308   0.8436584
  48.9350994  37.4831772   0.7712485  47.7313050  36.9448174   0.0276586
  43.2734935  34.5978751   1.6642155  43.9744395  35.2315234   1.8171549
  42.8030050  34.9393483   0.9037794  51.0736221  27.1523358  -0.5105295
  50.4207671  27.3999266  -1.1652842  51.4516601  26.3387497  -0.8442818
  47.1223794  27.8943170   5.9760742  46.4464431  27.7937299   6.6463117
  47.9451428  27.7382383   6.4396739  38.8702653  34.1315106  -1.4026743
  39.4556090  33.3858794  -1.2698838  38.6727492  34.4419063  -0.5190079
  45.8646577  39.2010097   0.2118358  46.4164885  39.3641718   0.9767443
  46.2052770  39.7914535  -0.4601617  40.8411070  21.5485247   0.8140243
  40.9052397  22.4100078   0.4017641  40.7778190  20.9359248   0.0812601
  40.3163343  23.6208379   4.4613277  40.9435382  23.2385457   5.0750801
  39.4591262  23.4022581   4.8268970  50.7157451  34.0271354   6.0667013
  51.2597355  34.6401313   5.5721967  50.1344296  34.5850933   6.5834026
  51.0649873  34.9501093  -1.1738410  50.1180208  34.8306444  -1.2460083
  51.4132646  34.0623591  -1.0912148  43.4249446  20.8395231   2.6499832
  43.9483848  21.0857528   3.4126142  43.2061779  21.6715266   2.2302970
  44.6301991  21.7808927   0.3349503  44.2898811  20.9816740   0.7370183
  43.9240997  22.0810637  -0.2373664  45.2818463  18.8658239  -1.2123174
  46.1044532  18.3918717  -1.3344284  45.5256526  19.6448723  -0.7124488
  42.8057042  25.5577360  -3.4031196  42.6601622  25.8717663  -2.5106914
  42.3282245  26.1762260  -3.9560297  46.5179555  22.9817248  -1.3097179
  46.2597333  23.9034318  -1.3112848  45.9864596  22.5847682  -0.6196714
  37.2802704  28.0982704  -0.4643534  36.7356172  28.8742512  -0.3323260
  38.1582054  28.4453509  -0.6224413  38.0668726  27.2252600   2.4286622
  37.3250462  27.3735236   3.0151253  37.7461470  27.4860866   1.5653372
  46.0112388  36.7668579   2.2267012  46.3199515  36.5217725   3.0989712
  46.8087870  36.9715217   1.7385883  38.5125339  35.1118029  -5.5402983
  39.3383359  34.8121801  -5.9204339  38.1619391  34.3425651  -5.0913194
  43.4806872  34.4644497  -3.4705309  42.8586882  33.8015202  -3.7703081
  44.1511739  34.4905629  -4.1531662  36.7133944  33.0304355  -4.5814049
  35.8765853  32.6026530  -4.7630048  36.6857590  33.2236799  -3.6443258
  43.5531400  22.9426285   6.1227197  43.6019555  23.8188408   5.7404966
  44.0953914  22.4003678   5.5498840  54.0386246  33.4867409   5.4028334
  53.2481789  33.4691547   4.8632833  53.8019600  34.0255702   6.1577370
  54.1584121  30.3359875   2.7161062  54.2082126  30.1709882   3.6576585
  54.0498044  29.4687134   2.3258943  51.4487883  26.3190803   4.0320369
  52.3497746  26.1797268   3.7404367  51.5235858  26.4845258   4.9718547
  45.7830688  23.6957658   2.8773555  44.9133998  23.9891224   2.6056144
  46.0190169  24.2798103   3.5980819  55.6602318  32.7556816   2.9603084
  55.3687126  33.1186797   3.7966545  55.0474449  32.0423825   2.7816416
  53.9089506  27.8789431   1.4283142  54.3843627  28.0717077   0.6201993
  52.9855071  27.9348617   1.1826526  48.4869722  19.9137275   0.3938976
  49.0051666  20.6498302   0.0685464  48.1324855  20.2201268   1.2285735
  52.6091175  24.7555191  -0.3388553  53.5608598  24.8553289  -0.3176328
  52.4394625  23.9633460   0.1709532  50.6305554  21.8410774  -0.1529152
  50.0355486  22.1215787  -0.8482663  50.3455251  22.3304675   0.6187590
  46.8101276  30.8975110   6.2781608  47.7304285  31.0753709   6.4721655
  46.7750859  29.9531155   6.1261307  39.8063348  28.8076145  -1.0795611
  40.0249358  29.7393252  -1.0607577  40.2189122  28.4484119  -0.2940807
  44.6791214  24.3809350   8.3107138  44.5787941  25.3303707   8.2419229
  44.4612756  24.0527589   7.4383208  35.8971701  29.7116615  -2.8271996
  35.2035172  29.2970568  -3.3402041  36.6444692  29.7537152  -3.4238577
  44.5422484  27.8106489   7.1272200  44.0589566  28.6106849   7.3336089
  44.6283423  27.8214434   6.1739644  40.4695821  31.7011024  -0.8359366
  41.4239075  31.6694966  -0.9029435  40.2708345  31.2401648  -0.0209140
  41.0595203  30.2712140   1.7311431  41.8788092  30.7656219   1.7546269
  41.3332011  29.3544108   1.7028999  38.8246050  37.2430643  -3.8189168
  38.6900518  36.4831044  -4.3851170  38.4078112  37.9671543  -4.2860380
  36.3130118  24.6050274   2.4303628  36.9588981  24.0949228   2.9190854
  36.1047269  25.3418955   3.0047054  48.8383510  31.6731121   7.9295769
  49.7074670  31.8471774   7.5682404  48.3590261  32.4925538   7.8071498
  43.0069690  38.7928222  -0.3914797  43.9096937  38.8251833  -0.0748302
  42.7807060  37.8628673  -0.3768462  40.6527609  21.7517891   6.5278643
  41.5159070  21.3954696   6.7381967  40.0793019  21.4131786   7.2154047
  56.9420631  40.8952740   4.7950086  56.1653965  41.4546660   4.7852951
  57.5811194  41.3809523   5.3164956  53.9328367  40.8577842   5.1583363
  53.3027027  41.5394123   5.3918760  53.8264455  40.7460923   4.2136501
  53.2109109  35.1598608   7.5208614  52.8176055  34.6064806   8.1956258
  54.0275250  35.4709186   7.9115132  56.1277070  36.5756487   5.1128871
  56.8686784  37.1763640   5.0333333  56.3594993  35.8334124   4.5546913
  51.2718408  41.7612854   3.3907100  51.1571924  40.8598111   3.6914199
  50.4162926  42.0076551   3.0391917  57.9528527  36.3580380   2.3376167
  57.3056442  37.0570330   2.2440644  58.7229543  36.7916524   2.7052415
  57.9617549  43.2235087   5.9760742  57.2858186  43.1229217   6.6463117
  58.7845182  43.0674301   6.4396739  51.6804825  36.8777164   0.8140243
  51.7446151  37.7391995   0.4017641  51.6171945  36.2651166   0.0812601
  51.1557097  38.9500297   4.4613277  51.7829136  38.5677374   5.0750801
  50.2985016  38.7314499   4.8268970  54.2643200  36.1687149   2.6499832
  54.7877602  36.4149446   3.4126142  54.0455534  37.0007184   2.2302970
  54.3925154  38.2718203   6.1227197  54.4413310  39.1480326   5.7404966
  54.9347669  37.7295596   5.5498840  56.6224443  39.0249575   2.8773555
  55.7527752  39.3183141   2.6056144  56.8583923  39.6090020   3.5980819
  55.5184968  39.7101268   8.3107138  55.4181695  40.6595625   8.2419229
  55.3006510  39.3819507   7.4383208  55.3816238  43.1398407   7.1272200
  54.8983320  43.9398767   7.3336089  55.4677177  43.1506352   6.1739644
  47.1523872  39.9342191   2.4303628  47.7982736  39.4241145   2.9190854
  46.9441023  40.6710873   3.0047054  51.4921363  37.0809809   6.5278643
  52.3552825  36.7246613   6.7381967  50.9186774  36.7423703   7.2154047
   6.2980612  44.2093627  21.7348923   5.5444321  43.6401025  21.5792928
   6.4328154  44.1756292  22.6819558   1.2629687  46.4722491  26.3895224
   1.4565577  47.3768302  26.6354498   1.1630305  46.0129910  27.2233809
   2.5171750  43.0296158  23.0343127   2.5061626  43.9120873  22.6637060
   1.6489130  42.6767709  22.8397664   3.1196360  44.1796377  19.6392590
   3.5627506  43.4303703  19.2411713   2.2422870  44.1706514  19.2566322
   1.4633543  48.0848736  29.5112468   1.1718351  48.4478716  30.3475929
   0.8505674  47.3715744  29.3325800   2.6629225  45.6501616  22.0315038
   3.4976116  46.0891420  22.1952598   2.7988354  45.1740269  21.2123284
   0.8910478  43.3053230  25.3263131   0.8586798  42.3669231  25.5122815
   1.5011101  43.3837267  24.5928956   1.0404966  40.0964274  25.3721414
   0.5244015  39.3122730  25.1851343   1.9244915  39.7682990  25.5367933
   6.7087027  44.3669237  24.4669168   7.4390416  44.1054525  25.0276871
   6.0993973  43.6297959  24.5071236   4.7902325  42.5077100  25.0643619
   4.0635488  42.3733065  24.4560110   4.3749611  42.8153928  25.8700337
   2.4080119  38.7288952  22.4177050   3.0024610  38.4884688  21.7070359
   2.4806703  38.0096082  23.0450587   4.7151192  42.0355153  21.1920472
   4.1550750  42.1048342  21.9652034   4.1094696  41.8596137  20.4719968
   6.3007211  58.7111667  23.8850427   6.9385621  58.5918414  23.1813767
   6.1828054  59.6592511  23.9438379   3.1096917  58.6639095  23.8211952
   2.7715428  58.5480159  22.9332487   3.9786685  58.2630260  23.8012958
   3.5916700  59.8173947  29.7798158   3.5805341  59.4226745  28.9078661
   3.7537339  59.0840019  30.3731929   1.2380168  59.9787907  25.3178701
   1.8343740  59.7543929  24.6035664   1.2955139  59.2372652  25.9204149
   5.8548479  56.4363121  20.9603635   6.6411568  56.0182544  20.6094052
   6.1187183  57.3409213  21.1285284  11.2556906  56.3738354  21.8636614
  11.9882078  55.8037571  22.0974443  10.4996262  55.9859954  22.3043119
   2.8733026  58.7965595  19.0599956   2.5091233  58.2696216  19.7712878
   3.7300142  58.4064064  18.8866442   8.7782327  50.0859928  26.3231222
   8.4465651  50.9555339  26.0992437   8.1827940  49.7696212  27.0025253
   8.6710990  54.8055014  23.4024572   7.7627867  54.7370422  23.1083333
   8.6198586  55.2826959  24.2306398   2.7451856  56.2244660  31.3459470
   1.9685190  56.7838580  31.3362334   3.3842419  56.7101443  31.8674340
  10.5372636  53.0071452  25.1802446   9.8947017  53.3003986  24.5342241
  10.0327565  52.8924373  25.9855643   8.1912800  56.7534626  15.8688306
   9.1030656  56.9862012  15.6936003   7.6822447  57.3371670  15.3063384
   6.4753568  61.1759253  29.5049598   6.8836924  60.7341664  28.7604231
   5.7530829  60.6011881  29.7583791   2.8284638  56.1131860  26.8783155
   3.6745833  56.5371274  27.0217804   2.7683275  55.4565485  27.5721718
   6.7982382  61.7360444  23.2601887   6.1691245  61.9006158  22.5577955
   6.4108044  62.1502054  24.0312851  10.6771614  62.6714882  20.6146251
   9.9922652  63.0513783  20.0643284  10.7615464  63.2810209  21.3478199
   5.9784083  53.7736229  28.5364329   5.7345015  54.5278289  27.9998605
   6.2544014  54.1521576  29.3711576   7.9322546  60.3174841  27.2141594
   8.1439441  60.9606601  26.5375976   7.8852294  59.4837157  26.7463525
   5.5348775  52.9292662  24.1178167   4.6733254  53.2273915  24.4094904
   5.5611209  53.1463060  23.1859199   9.0468374  63.1946796  25.3863952
   9.8685818  62.7926984  25.1046633   9.0430777  63.0915031  26.3380068
  17.1374367  59.5385545  21.7348923  16.3838075  58.9692943  21.5792928
  17.2721908  59.5048209  22.6819558   1.9308296  51.9048406  31.6638254
   2.6718009  52.5055559  31.5842717   2.1626218  51.1626044  31.1056297
   5.8765458  47.9329509  25.9402536   5.5329728  48.8231151  25.8641647
   6.2444421  47.7431167  25.0772121   3.4262852  52.7687821  19.5060210
   2.5704449  52.3794671  19.3265848   3.8389804  52.8479782  18.6459995
   4.9561999  50.3034164  23.9051769   4.4526794  50.2664299  23.0919575
   5.2492606  51.2126907  23.9648426   1.2004885  50.3872894  22.9117951
   2.0657881  50.1915703  22.5523841   1.2682394  50.1583246  23.8387308
  10.8150015  60.6770475  16.3828145  10.0379458  60.3381634  15.9383307
  11.4941496  60.6823098  15.7083110   5.6302044  55.7965212  16.2734752
   5.3252180  56.1111361  17.1244896   6.5832486  55.8746632  16.3162085
   9.0541322  60.1504456  23.0394753   8.3964997  60.8403717  23.1274881
   9.8581721  60.5400888  23.3828739   7.8646781  58.5048829  21.0898694
   8.3778663  59.1378821  21.5920404   8.5148005  57.9050024  20.7242054
   1.1089872  49.4916351  19.0109387   0.4554284  49.1765368  18.3866002
   1.0670346  48.8692091  19.7369210   4.3427612  55.9798284  23.3357035
   3.4250173  56.2013231  23.1778723   4.7587755  56.0544595  22.4768742
   5.1262660  57.3789700  18.4659715   5.8734479  57.8911097  18.1566837
   5.3954249  57.0573753  19.3264109   7.5741497  54.4146816  20.4478504
   6.8364254  53.9024202  20.7788747   7.8268270  53.9747198  19.6361781
   7.6753124  47.1923068  21.0420274   7.9812001  46.3320432  20.7546189
   8.4005729  47.7840688  20.8419268   1.9474204  57.4876861  21.5496465
   2.0022814  56.5350698  21.4738941   1.1365406  57.6436300  22.0337763
   5.4840775  56.5695746  28.1401738   5.8390163  56.7967219  28.9996203
   6.1312907  56.9014122  27.5178993  11.2138512  59.6914181  18.8451067
  11.0756411  59.8815777  17.9172256  10.8574731  60.4533564  19.3019118
  11.2407892  61.7590708  23.8562338  11.6744399  61.6665997  24.7045392
  11.9539473  61.7348209  23.2182354  12.1023442  61.8014409  26.3895224
  12.2959332  62.7060220  26.6354498  12.0024060  61.3421828  27.2233809
   3.7559752  51.6872300  28.8885551   3.1087667  52.3862249  28.7950027
   4.5260768  52.1208444  29.2561799   7.1638550  61.9521152  31.9636104
   7.0124057  61.7231703  31.0466188   7.1543230  62.9091753  31.9767449
   3.9323887  59.5253065  26.9482371   4.8615947  59.6764224  26.7751338
   3.5114917  59.6137085  26.0931017   0.8843978  58.0472921  27.1206007
   1.5943597  57.4066113  27.0792625   0.8413286  58.2985816  28.0432188
   8.8748164  62.9479858  28.2726566   7.9874943  62.6105780  28.3952965
   9.4446715  62.2162890  28.5095331   5.5035747  52.6547710  21.3924836
   6.0004447  51.9017672  21.0725906   4.7322729  52.6912027  20.8268045
  13.3565505  58.3588076  23.0343127  13.3455381  59.2412791  22.6637060
  12.4882884  58.0059626  22.8397664   6.5865528  61.4119397  18.9663259
   5.6521807  61.5320860  18.7967964   6.7642196  60.5091864  18.7023269
   2.0870716  54.7965093  21.1196520   1.7168504  54.2436133  21.8077426
   2.5829808  54.1923227  20.5671520   9.9738079  57.2536717  19.5013293
  10.4398532  58.0864708  19.4273596  10.4245580  56.7881698  20.2058552
   7.9454742  49.6217304  23.5404195   7.0317822  49.8521530  23.7086402
   8.3747844  49.7055748  24.3918227   7.7161201  57.8107196  26.0404089
   7.0632651  58.0583103  25.3856541   8.0941580  56.9971334  25.7066566
   3.7648774  58.5527007  32.5270126   3.0889411  58.4521136  33.1972501
   4.5876407  58.3966220  32.9906123   1.2726971  52.4392764  26.8858886
   0.9323791  51.6400577  27.2879566   0.5665977  52.7394475  26.3135720
   1.9243442  49.5242076  25.3386209   2.7469512  49.0502554  25.2165100
   2.1681506  50.3032560  25.8384896   4.7082800  53.2575484  16.5707443
   4.9246414  54.1400121  16.2696272   4.2276867  52.8661697  15.8413085
   1.3078404  53.2063745  23.1959078   1.2939973  52.3104838  22.8591376
   2.0250832  53.2134409  23.8297364   3.1604535  53.6401085  25.2412205
   2.9022313  54.5618156  25.2396535   2.6289575  53.2431520  25.9312669
   0.7115300  52.0878125  18.4646648   0.8331211  51.1594771  18.6637535
   0.4217342  52.1016811  17.5524963   3.5806490  49.7733035  21.6013368
   3.6028187  49.8372369  20.6465347   3.9974549  48.9337544  21.7953874
  13.9590115  59.5088295  19.6392590  14.4021261  58.7595620  19.2411713
  13.0816625  59.4998431  19.2566322  10.9917319  63.5118342  16.6486520
  11.5168643  63.8505615  15.9235840  10.9039672  62.5765357  16.4649654
  10.8009100  60.9943712  29.2670446  10.8507105  60.8293719  30.2085969
  10.6923024  60.1270971  28.8768327   8.0912863  56.9774640  30.5829753
   8.9922725  56.8381105  30.2913751   8.1660837  57.1429095  31.5227930
   2.4255668  54.3541495  29.4282939   1.5558977  54.6475061  29.1565528
   2.6615148  54.9381940  30.1490203  12.3027297  63.4140654  29.5112468
  12.0112105  63.7770634  30.3475929  11.6899428  62.7007662  29.3325800
  13.5022979  60.9793533  22.0315038  14.3369871  61.4183337  22.1952598
  13.6382108  60.5032187  21.2123284  10.5514485  58.5373268  27.9792526
  11.0268607  58.7300914  27.1711377   9.6280051  58.5932454  27.7335909
   5.1294702  50.5721112  26.9448359   5.6476646  51.3082139  26.6194848
   4.7749835  50.8785105  27.7795119   5.3807296  46.9921394  22.4649256
   5.6609050  46.3244583  23.0909683   6.1657903  47.1850490  21.9523920
   9.2516154  55.4139028  26.2120831  10.2033577  55.5137126  26.2333055
   9.0819605  54.6217297  26.7218915   7.2730534  52.4994611  26.3980232
   6.6780466  52.7799624  25.7026721   6.9880230  52.9888512  27.1696973
  11.7304232  58.6345148  25.3263131  11.6980552  57.6961149  25.5122815
  12.3404856  58.7129185  24.5928956  11.8798721  55.4256191  25.3721414
  11.3637769  54.6414648  25.1851343  12.7638669  55.0974908  25.5367933
   9.5409447  49.1697207  21.3317227   9.3434269  48.8612295  22.2160559
  10.1509153  49.8958846  21.4615156  17.5480782  59.6961155  24.4669168
  18.2784170  59.4346443  25.0276871  16.9387727  58.9589877  24.5071236
  15.6296079  57.8369017  25.0643619  14.9029243  57.7024982  24.4560110
  15.2143366  58.1445846  25.8700337   3.4526255  61.5558947  32.8290992
   4.3729265  61.7337546  33.0231038   3.4175838  60.6114992  32.6770691
   3.3692546  49.9728067  17.4589461   2.5593274  49.6275152  17.8344707
   4.0576963  49.6635611  18.0477073   5.2983094  49.0506114  19.0813758
   5.8514133  49.4701567  19.7403781   5.5353180  48.1241862  19.1236714
   1.3216193  55.0393187  34.8616522   1.2212920  55.9887544  34.7928613
   1.1037735  54.7111426  33.9892592   8.6761901  51.1606639  18.5892422
   8.0960570  51.8191443  18.2070475   8.4097834  50.3383984  18.1779840
   7.1265468  50.5611697  20.7913743   7.6265246  50.6728231  19.9828061
   7.7701075  50.2572750  21.4314551   1.1847463  58.4690326  33.6781584
   0.7014545  59.2690686  33.8845473   1.2708402  58.4798271  32.7249028
   7.4586779  53.3206729  17.6448771   6.5712634  53.6056380  17.4268965
   7.8740768  53.1600493  16.7976047  10.8101315  53.3453250  21.3603110
  11.5861705  53.8349703  21.6327727  10.0849449  53.7711305  21.8174979
  13.2473874  54.0580870  22.4177050  13.8418365  53.8176606  21.7070359
  13.3200458  53.3388000  23.0450587   7.4327803  58.8361265  17.8599061
   7.3763004  59.2929817  17.0206693   7.9856145  58.0751950  17.6821903
  11.2432609  54.6250997  18.6849180  10.9869543  54.2247633  19.5157388
  10.6185477  55.3394791  18.5599319  15.5544947  57.3647070  21.1920472
  14.9944505  57.4340260  21.9652034  14.9488450  57.1888055  20.4719968
   1.4758708  49.5274156  14.7336908   1.4637378  50.4715995  14.8905179
   2.3682130  49.3444301  14.4396369   5.2910827  46.1216932  18.9882845
   4.5243223  45.5675419  19.1339527   5.7021532  46.1938801  19.8496997
  19.6176081  65.4151846  26.3231222  19.2859406  66.2847256  26.0992437
  19.0221695  65.0988130  27.0025253  16.7159213  63.2621427  25.9402536
  16.3723482  64.1523068  25.8641647  17.0838176  63.0723084  25.0772121
  11.9483626  64.8208268  19.0109387  11.2948038  64.5057286  18.3866002
  11.9064100  64.1984009  19.7369210  18.5146879  62.5214986  21.0420274
  18.8205755  61.6612349  20.7546189  19.2399483  63.1132606  20.8419268
  18.7848497  64.9509221  23.5404195  17.8711576  65.1813448  23.7086402
  19.2141598  65.0347665  24.3918227  14.4200245  65.1024953  21.6013368
  14.4421942  65.1664286  20.6465347  14.8368304  64.2629462  21.7953874
  16.2201050  62.3213312  22.4649256  16.5002804  61.6536501  23.0909683
  17.0051657  62.5142408  21.9523920  20.3803202  64.4989125  21.3317227
  20.1828023  64.1904213  22.2160559  20.9902908  65.2250764  21.4615156
  14.2086300  65.3019985  17.4589461  13.3987029  64.9567070  17.8344707
  14.8970717  64.9927528  18.0477073  16.1376849  64.3798032  19.0813758
  16.6907887  64.7993485  19.7403781  16.3746935  63.4533780  19.1236714
  19.5155656  66.4898557  18.5892422  18.9354325  67.1483361  18.2070475
  19.2491588  65.6675901  18.1779840  17.9659222  65.8903614  20.7913743
  18.4659000  66.0020149  19.9828061  18.6094830  65.5864667  21.4314551
  16.1304582  61.4508850  18.9882845  15.3636977  60.8967337  19.1339527
  16.5415287  61.5230719  19.8496997   1.4633544  25.0910858  16.2357774
   1.1718352  25.4540839  17.0721235   0.8505675  24.3777867  16.0571106
   6.3007212  35.7173789  10.6095734   6.9385622  35.5980537   9.9059074
   6.1828055  36.6654633  10.6683686   3.1096918  35.6701217  10.5457259
   2.7715430  35.5542282   9.6577793   3.9786686  35.2692382  10.5258265
   3.5916701  36.8236069  16.5043464   3.5805342  36.4288867  15.6323968
   3.7537341  36.0902142  17.0977236   1.2380169  36.9850029  12.0424008
   1.8343741  36.7606052  11.3280971   1.2955141  36.2434775  12.6449456
   5.8548480  33.4425243   7.6848942   6.6411570  33.0244666   7.3339359
   6.1187185  34.3471335   7.8530590  11.2556908  33.3800476   8.5881920
  11.9882079  32.8099693   8.8219750  10.4996263  32.9922077   9.0288426
   8.7782328  27.0922050  13.0476529   8.4465653  27.9617461  12.8237744
   8.1827941  26.7758334  13.7270559   5.2713847  39.2934596  12.4472442
   4.9714571  40.1959635  12.3388249   4.9264907  39.0266780  13.2993595
   8.6710991  31.8117137  10.1269879   7.7627869  31.7432545   9.8328640
   8.6198587  32.2889082  10.9551705   2.7451857  33.2306782  18.0704776
   1.9685191  33.7900702  18.0607641   3.3842420  33.7163565  18.5919647
  10.5372638  30.0133575  11.9047753   9.8947018  30.3066108  11.2587548
  10.0327566  29.8986495  12.7100950   6.4753569  38.1821376  16.2294905
   6.8836925  37.7403787  15.4849537   5.7530830  37.6074004  16.4829098
   2.8284639  33.1193983  13.6028462   3.6745834  33.5433396  13.7463111
   2.7683277  32.4627607  14.2967025   6.7982384  38.7422567   9.9847194
   6.1691246  38.9068281   9.2823262   6.4108046  39.1564176  10.7558158
  10.6771615  39.6777005   7.3391558   9.9922654  40.0575906   6.7888591
  10.7615465  40.2872331   8.0723505   5.9784084  30.7798351  15.2609635
   5.7345016  31.5340412  14.7243911   6.2544015  31.1583699  16.0956883
   7.9322547  37.3236964  13.9386901   8.1439442  37.9668723  13.2621282
   7.8852295  36.4899280  13.4708831   5.5348776  29.9354784  10.8423473
   4.6733255  30.2336038  11.1340211   5.5611211  30.1525183   9.9104506
   9.0468375  40.2008919  12.1109258   9.8685819  39.7989106  11.8291940
   9.0430778  40.0977153  13.0625374   2.8124978  39.7492962  14.2669969
   2.8769411  40.2113369  15.1028141   2.1035902  39.1190327  14.3952279
  17.1374368  36.5447667   8.4594230  16.3838076  35.9755066   8.3038234
  17.2721909  36.5110332   9.4064865   1.9308297  28.9110529  18.3883561
   2.6718010  29.5117682  18.3088023   2.1626220  28.1688166  17.8301604
   4.1541473  42.0384636  18.2649291   3.7105327  41.2521015  17.9470196
   4.8158686  42.2263787  17.5993182   6.2522711  42.3187436  16.2930693
   6.2341186  43.1396317  15.8010962   7.1742631  42.1941511  16.5180834
   2.7095765  39.8331566  17.1354201   3.2424102  39.0719854  16.9053509
   2.1809846  39.5405217  17.8778355   5.8765460  24.9391632  12.6647843
   5.5329729  25.8293273  12.5886953   6.2444422  24.7493289  11.8017428
  10.8150017  37.6832597   3.1073451  10.0379459  37.3443757   2.6628613
  11.4941498  37.6885221   2.4328416   9.0541323  37.1566579   9.7640059
   8.3964998  37.8465840   9.8520188   9.8581723  37.5463011  10.1074046
   7.8646782  35.5110951   7.8144001   8.3778664  36.1440943   8.3165711
   8.5148006  34.9112147   7.4487361   4.3427613  32.9860407  10.0602342
   3.4250175  33.2075354   9.9024030   4.7587757  33.0606717   9.2014049
   8.6308578  40.4916953   5.9423144   8.1770906  39.6507863   5.9988334
   8.0002545  41.1278351   6.2797924   7.0741518  42.3293449   6.8772962
   7.3664492  42.8898507   6.1585327   7.5840138  42.6222010   7.6326121
   1.9474205  34.4938984   8.2741771   2.0022815  33.5412820   8.1984248
   1.1365407  34.6498423   8.7583070   5.4840777  33.5757868  14.8647044
   5.8390164  33.8029341  15.7241510   6.1312908  33.9076245  14.2424300
  11.2138514  36.6976304   5.5696373  11.0756412  36.8877900   4.6417562
  10.8574732  37.4595687   6.0264424  11.2407893  38.7652831  10.5807645
  11.6744400  38.6728120  11.4290699  11.9539474  38.7410331   9.9427661
   4.9735788  42.3654925  12.1140745   5.0272810  42.9345861  12.8818461
   4.1050570  42.5356810  11.7494782  12.1023443  38.8076532  13.1140530
  12.2959333  39.7122342  13.3599805  12.0024061  38.3483951  13.9479115
   3.7559754  28.6934422  15.6130857   3.1087669  29.3924372  15.5195334
   4.5260769  29.1270566  15.9807106   7.1638551  38.9583274  18.6881411
   7.0124058  38.7293826  17.7711494   7.1543231  39.9153876  18.7012756
   3.9323888  36.5315187  13.6727677   4.8615948  36.6826347  13.4996645
   3.5114918  36.6199208  12.8176324   2.7312220  40.5565852  11.4426215
   2.5923305  40.1884636  12.3152153   1.9426816  41.0713491  11.2710173
   4.2817435  39.9347454   8.8315053   3.9467267  39.8948224   9.7272703
   3.7821381  39.2692170   8.3585463   0.8843979  35.0535044  13.8451313
   1.5943598  34.4128236  13.8037932   0.8413288  35.3047938  14.7677494
   8.8730758  41.9902397  16.7657893   8.8143304  41.3061617  16.0988476
   9.2750277  42.7321387  16.3138519   8.8748165  39.9541981  14.9971872
   7.9874944  39.6167903  15.1198271   9.4446716  39.2225012  15.2340638
   2.4049319  44.6143433  11.9633116   2.3319490  45.4198405  12.4752420
   1.9626712  44.8135399  11.1381137  13.3565506  35.3650198   9.7588434
  13.3455382  36.2474914   9.3882367  12.4882885  35.0121749   9.5642971
   4.8648002  44.5130267  14.1191274   5.5775975  45.1477732  14.0467176
   4.3738031  44.6094133  13.3031276   6.5865529  38.4181520   5.6908566
   5.6521808  38.5382982   5.5213270   6.7642198  37.5153987   5.4268576
   9.9738081  34.2598839   6.2258600  10.4398533  35.0926831   6.1518903
  10.4245581  33.7943821   6.9303858   7.9454743  26.6279426  10.2649501
   7.0317823  26.8583653  10.4331708   8.3747845  26.7117870  11.1163534
   7.7161202  34.8169318  12.7649395   7.0632652  35.0645226  12.1101848
   8.0941582  34.0033456  12.4311873   3.7648775  35.5589129  19.2515432
   3.0889412  35.4583259  19.9217808   4.5876409  35.4028343  19.7151430
   2.5071558  46.8656057  13.4873048   3.0589866  47.0287678  14.2522134
   2.8477751  47.4560495  12.8153073   7.3582432  41.6917314  19.3421703
   7.9022336  42.3047272  18.8476658   6.7769277  42.2496893  19.8588716
   5.6439945  44.8138032  10.4736731   5.5191084  44.0127772   9.9647676
   6.3019036  45.3084226   9.9850701   7.7074853  42.6147052  12.1016281
   6.7605189  42.4952403  12.0294607   8.0557626  41.7269550  12.1842542
   4.7121287  42.4099769   8.3020633   4.5646249  41.4816476   8.4828203
   5.5374780  42.4319859   7.8177708   8.3155409  43.2328327   9.3885506
   9.2401956  43.0271189   9.2509957   8.1470712  42.9844728  10.2974847
   1.2726972  29.4454886  13.6104193   0.9323792  28.6462699  14.0124873
   0.5665978  29.7456597  13.0381026   1.9243444  26.5304199  12.0631516
   2.7469513  26.0564677  11.9410406   2.1681507  27.3094682  12.5630202
   3.1604536  30.6463208  11.9657512   2.9022314  31.5680278  11.9641842
   2.6289576  30.2493642  12.6557976  13.9590116  36.5150418   6.3637897
  14.4021262  35.7657743   5.9657020  13.0816626  36.5060554   5.9811629
  10.9917320  40.5180465   3.3731826  11.5168644  40.8567737   2.6481146
  10.9039673  39.5827480   3.1894961   2.6537369  44.4314538  15.5021703
   2.9624495  44.1863685  16.3744402   3.4512851  44.6361177  15.0140573
  10.6811226  41.1513368  18.6783024   9.8906770  41.1337507  18.1387524
  10.4444581  41.6901662  19.4332061  10.8009101  38.0005835  15.9915753
  10.8507106  37.8355842  16.9331275  10.6923025  37.1333094  15.6013633
   8.0912864  33.9836763  17.3075059   8.9922727  33.8443228  17.0159057
   8.1660838  34.1491218  18.2473237   2.4255669  31.3603617  16.1528246
   1.5558979  31.6537183  15.8810834   2.6615150  31.9444062  16.8735509
  12.3027298  40.4202776  16.2357774  12.0112107  40.7832757  17.0721235
  11.6899430  39.7069784  16.0571106  13.5022981  37.9855656   8.7560344
  14.3369872  38.4245460   8.9197905  13.6382109  37.5094309   7.9368590
  10.5514487  35.5435391  14.7037832  11.0268608  35.7363037  13.8956684
   9.6280052  35.5994577  14.4581216   5.1294703  27.5783234  13.6693666
   5.6476647  28.3144261  13.3440155   4.7749836  27.8847228  14.5040425
   9.2516156  32.4201151  12.9366138  10.2033578  32.5199249  12.9578362
   9.0819606  31.6279419  13.4464222   7.2730535  29.5056734  13.1225539
   6.6780467  29.7861747  12.4272027   6.9880232  29.9950635  13.8942280
  11.7304233  35.6407271  12.0508437  11.6980553  34.7023271  12.2368121
  12.3404857  35.7191307  11.3174262  11.8798722  32.4318314  12.0966721
  11.3637770  31.6476771  11.9096649  12.7638670  32.1037031  12.2613240
  17.5480783  36.7023277  11.1914474  18.2784172  36.4408566  11.7522178
  16.9387729  35.9651999  11.2316542  15.6296080  34.8431140  11.7888925
  14.9029244  34.7087105  11.1805417  15.2143367  35.1507969  12.5945643
   3.4526257  38.5621070  19.5536298   4.3729266  38.7399669  19.7476345
   3.4175840  37.6177115  19.4015998   1.3216195  32.0455310  21.5861829
   1.2212921  32.9949667  21.5173920   1.1037737  31.7173549  20.7137899
   1.1847465  35.4752449  20.4026890   0.7014546  36.2752809  20.6090779
   1.2708404  35.4860394  19.4494334  10.8101317  30.3515373   8.0848416
  11.5861707  30.8411825   8.3573033  10.0849451  30.7773427   8.5420286
  13.2473875  31.0642992   9.1422357  13.8418366  30.8238728   8.4315665
  13.3200459  30.3450123   9.7695893  11.2432610  31.6313120   5.4094487
  10.9869544  31.2309755   6.2402695  10.6185478  32.3456914   5.2844626
  15.5544948  34.3709193   7.9165778  14.9944506  34.4402382   8.6897340
  14.9488451  34.1950178   7.1965274   5.4808491  39.3377081  21.2050459
   6.3499650  39.5117733  20.8437094   5.0015242  40.1571498  21.0826189
  17.1400966  51.0465707  10.6095734  17.7779376  50.9272454   9.9059074
  17.0221809  51.9946551  10.6683686  13.9490673  50.9993135  10.5457259
  13.6109184  50.8834200   9.6577793  14.8180441  50.5984300  10.5258265
  14.4310456  52.1527987  16.5043464  14.4199096  51.7580785  15.6323968
  14.5931095  51.4194059  17.0977236  11.1517717  54.9365099  15.4522648
  10.8607583  55.8410729  15.3369314  11.7874701  54.9781626  16.1666718
  12.0773924  52.3141947  12.0424008  12.6737496  52.0897970  11.3280971
  12.1348895  51.5726693  12.6449456  16.6942235  48.7717161   7.6848942
  17.4805324  48.3536584   7.3339359  16.9580939  49.6763253   7.8530590
  22.0950662  48.7092394   8.5881920  22.8275834  48.1391611   8.8219750
  21.3390018  48.3213994   9.0288426  13.7126782  51.1319636   5.7845263
  13.3484989  50.6050256   6.4958184  14.5693898  50.7418105   5.6111748
  19.6176082  42.4213968  13.0476529  19.2859407  43.2909379  12.8237744
  19.0221696  42.1050252  13.7270559  16.1107602  54.6226514  12.4472442
  15.8108325  55.5251553  12.3388249  15.7658661  54.3558697  13.2993595
  19.5104746  47.1409054  10.1269879  18.6021623  47.0724463   9.8328640
  19.4592341  47.6180999  10.9551705  13.5845611  48.5598700  18.0704776
  12.8078946  49.1192620  18.0607641  14.2236175  49.0455483  18.5919647
  21.3766392  45.3425493  11.9047753  20.7340772  45.6358026  11.2587548
  20.8721321  45.2278413  12.7100950  19.0306556  49.0888666   2.5933612
  19.9424412  49.3216053   2.4181310  18.5216203  49.6725710   2.0308691
  11.8391984  51.3684153  17.6322743  12.5806668  51.9069197  17.3557567
  11.1328969  51.9950442  17.7894295  17.3147323  53.5113294  16.2294905
  17.7230679  53.0695704  15.4849537  16.5924585  52.9365921  16.4829098
  13.6678393  48.4485900  13.6028462  14.5139589  48.8725314  13.7463111
  13.6077031  47.7919525  14.2967025  17.6376138  54.0714484   9.9847194
  17.0085001  54.2360198   9.2823262  17.2501800  54.4856094  10.7558158
  21.5165370  55.0068922   7.3391558  20.8316408  55.3867824   6.7888591
  21.6009219  55.6164249   8.0723505  16.8177839  46.1090269  15.2609635
  16.5738771  46.8632329  14.7243911  17.0937769  46.4875616  16.0956883
  18.7716302  52.6528881  13.9386901  18.9833197  53.2960641  13.2621282
  18.7246050  51.8191198  13.4708831  16.3742531  45.2646702  10.8423473
  15.5127010  45.5627955  11.1340211  16.4004965  45.4817101   9.9104506
  10.0828181  53.3560374  10.1877042  10.6529538  53.7847642   9.5494527
  10.6736293  53.0742959  10.8861228  10.5753348  48.5223801  18.4338053
   9.9452008  49.2040082  18.6673450  10.4689435  48.4106883  17.4891192
  19.8862130  55.5300837  12.1109258  20.7079573  55.1281024  11.8291940
  19.8824532  55.4269071  13.0625374  13.6518733  55.0784880  14.2669969
  13.7163165  55.5405287  15.1028141  12.9429657  54.4482245  14.3952279
   4.1536023  48.4426088  11.7918968   4.4044061  49.3273098  12.0576544
   4.6895571  48.2630689  11.0194060  27.9768123  51.8739585   8.4594230
  27.2231831  51.3046983   8.3038234  28.1115664  51.8402250   9.4064865
   9.8534090  42.8244567  20.7963304   9.4601036  42.2710766  21.4710949
  10.6700231  43.1355146  21.1869822  12.7702051  44.2402446  18.3883561
  13.5111765  44.8409599  18.3088023  13.0019974  43.4980084  17.8301604
   7.9143389  49.4258814  16.6661791   7.7996904  48.5244071  16.9668890
   7.0587907  49.6722510  16.3146607  14.9935227  57.3676554  18.2649291
  14.5499081  56.5812932  17.9470196  15.6552441  57.5555704  17.5993182
  17.0916465  57.6479354  16.2930693  17.0734940  58.4688235  15.8010962
  18.0136385  57.5233429  16.5180834  13.5489519  55.1623483  17.1354201
  14.0817856  54.4011772  16.9053509  13.0203600  54.8697135  17.8778355
  16.7159214  40.2683549  12.6647843  16.3723484  41.1585191  12.5886953
  17.0838177  40.0785207  11.8017428  14.2656608  45.1041861   6.2305516
  13.4098204  44.7148712   6.0511155  14.6783560  45.1833822   5.3705302
  15.7955755  42.6388204  10.6297076  15.2920550  42.6018340   9.8164881
  16.0886361  43.5480947  10.6893733  12.0398640  42.7226934   9.6363258
  12.9051637  42.5269743   9.2769147  12.1076149  42.4937286  10.5632614
  21.6543771  53.0124515   3.1073451  20.8773214  52.6735675   2.6628613
  22.3335252  53.0177138   2.4328416  16.4695800  48.1319253   2.9980059
  16.1645936  48.4465402   3.8490202  17.4226242  48.2100672   3.0407392
  19.8935078  52.4858496   9.7640059  19.2358752  53.1757758   9.8520188
  20.6975477  52.8754928  10.1074046   9.6460960  44.9529142   7.0079624
  10.2204711  44.7304324   6.2752817  10.2331942  45.0217837   7.7608226
  18.7040537  50.8402869   7.8144001  19.2172419  51.4732861   8.3165711
  19.3541761  50.2404065   7.4487361  11.9483627  41.8270391   5.7354694
  11.2948040  41.5119408   5.1111309  11.9064101  41.2046131   6.4614517
  15.1821368  48.3152325  10.0602342  14.2643929  48.5367272   9.9024030
  15.5981511  48.3898635   9.2014049  15.9656415  49.7143740   5.1905022
  16.7128234  50.2265137   4.8812144  16.2348005  49.3927793   6.0509415
  19.4702333  55.8208870   5.9423144  19.0164660  54.9799780   5.9988334
  18.8396300  56.4570269   6.2797924  18.4135253  46.7500856   7.1723811
  17.6758009  46.2378243   7.5034054  18.6662026  46.3101238   6.3607088
  17.9135272  57.6585367   6.8772962  18.2058247  58.2190424   6.1585327
  18.4233893  57.9513928   7.6326121  18.5146880  39.5277108   7.7665580
  18.8205757  38.6674472   7.4791495  19.2399485  40.1194729   7.5664574
  12.7867960  49.8230902   8.2741771  12.8416569  48.8704738   8.1984248
  11.9759162  49.9790341   8.7583070  16.3234531  48.9049786  14.8647044
  16.6783919  49.1321259  15.7241510  16.9706662  49.2368163  14.2424300
  22.0532268  52.0268222   5.5696373  21.9150167  52.2169818   4.6417562
  21.6968487  52.7887604   6.0264424  10.2174394  46.0126317  11.6493385
  10.8573774  45.8715076  10.9516349   9.3851925  45.7260830  11.2731987
  22.0801648  54.0944749  10.5807645  22.5138154  54.0020038  11.4290699
  22.7933228  54.0702249   9.9427661  15.8129543  57.6946843  12.1140745
  15.8666565  58.2637779  12.8818461  14.9444324  57.8648728  11.7494782
   8.6927936  47.3964399  13.5965197   9.3650989  47.1881761  12.9477846
   7.8657723  47.1986485  13.1570429  22.9417197  54.1368449  13.1140530
  23.1353087  55.0414260  13.3599805  22.8417815  53.6775868  13.9479115
  14.5953508  44.0226340  15.6130857  13.9481423  44.7216290  15.5195334
  15.3654523  44.4562484  15.9807106  18.0032306  54.2875192  18.6881411
  17.8517812  54.0585744  17.7711494  17.9936985  55.2445793  18.7012756
  14.7717642  51.8607105  13.6727677  15.7009702  52.0118264  13.4996645
  14.3508672  51.9491126  12.8176324  13.5705974  55.8857769  11.4426215
  13.4317060  55.5176554  12.3152153  12.7820570  56.4005409  11.2710173
  15.1211189  55.2639372   8.8315053  14.7861022  55.2240142   9.7272703
  14.6215135  54.5984088   8.3585463   9.0955433  50.6707002  14.3567634
   8.9575231  49.9387241  14.9579173  10.0060357  50.5815902  14.0751822
  11.7237734  50.3826961  13.8451313  12.4337352  49.7420153  13.8037932
  11.6807042  50.6339856  14.7677494  19.7124513  57.3194315  16.7657893
  19.6537059  56.6353535  16.0988476  20.1144031  58.0613305  16.3138519
  10.4366668  47.3692179  15.6646953   9.9004025  46.9182918  16.3168549
   9.8483376  47.5038088  14.9217417  19.7141920  55.2833899  14.9971872
  18.8268699  54.9459820  15.1198271  20.2840471  54.5516930  15.2340638
   6.1705789  46.5048187  12.7499947   6.0863978  45.8973856  12.0150357
   5.3488496  46.9957205  12.7509444  13.2443073  59.9435351  11.9633116
  13.1713245  60.7490322  12.4752420  12.8020466  60.1427317  11.1381137
  16.3429503  44.9901750   8.1170142  16.8398203  44.2371713   7.7971213
  15.5716485  45.0266067   7.5513352  24.1959260  50.6942116   9.7588434
  24.1849137  51.5766831   9.3882367  23.3276640  50.3413667   9.5642971
  15.7041757  59.8422185  14.1191274  16.4169729  60.4769650  14.0467176
  15.2131785  59.9386051  13.3031276  17.4259284  53.7473438   5.6908566
  16.4915562  53.8674900   5.5213270  17.6035952  52.8445904   5.4268576
  12.9264472  47.1319133   7.8441827  12.5562259  46.5790174   8.5322733
  13.4223564  46.5277267   7.2916827  20.8131835  49.5890757   6.2258600
  21.2792287  50.4218748   6.1518903  21.2639336  49.1235738   6.9303858
  10.7553670  57.5916628  14.9396845  11.4563130  58.2253111  15.0926239
  10.2848785  57.9331360  14.1792484  18.7848498  41.9571344  10.2649501
  17.8711578  42.1875571  10.4331708  19.2141599  42.0409788  11.1163534
  18.5554956  50.1461236  12.7649395  17.9026407  50.3937143  12.1101848
  18.9335336  49.3325374  12.4311873  14.6042529  50.8881047  19.2515432
  13.9283166  50.7875176  19.9217808  15.4270163  50.7320261  19.7151430
  13.3465312  62.1947974  13.4873048  13.8983620  62.3579596  14.2522134
  13.6871506  62.7852412  12.8153073   8.3229805  44.5423124  14.0894933
   8.3871132  45.4037955  13.6772331   8.2596926  43.9297126  13.3567292
   7.7982078  46.6146257  17.7367967   8.4254117  46.2323334  18.3505492
   6.9409997  46.3960459  18.1023660  18.1976187  57.0209232  19.3421703
  18.7416091  57.6339190  18.8476658  17.6163031  57.5788810  19.8588716
  16.4833699  60.1429950  10.4736731  16.3584839  59.3419690   9.9647676
  17.1412791  60.6376143   9.9850701   8.1041868  46.4978682   9.6513871
   7.3828453  47.1114650   9.5121344   8.8935123  47.0336447   9.5730517
  18.5468608  57.9438970  12.1016281  17.5998943  57.8244321  12.0294607
  18.8951381  57.0561468  12.1842542  10.9068181  43.8333109  15.9254523
  11.4302583  44.0795405  16.6880832  10.6880515  44.6653144  15.5057660
  15.5515041  57.7391686   8.3020633  15.4040004  56.8108394   8.4828203
  16.3768535  57.7611777   7.8177708  19.1549163  58.5620245   9.3885506
  20.0795710  58.3563106   9.2509957  18.9864466  58.3136646  10.2974847
  12.1120726  44.7746804  13.6104193  11.7717547  43.9754617  14.0124873
  11.4059733  45.0748515  13.0381026  12.7637198  41.8596116  12.0631516
  13.5863267  41.3856595  11.9410406  13.0075262  42.6386600  12.5630202
  15.5476555  45.5929524   3.2952750  15.7640170  46.4754162   2.9941578
  15.0670623  45.2015737   2.5658392  10.2875777  48.5515237   9.8723495
  10.1420358  48.8655540  10.7647776   9.8100981  49.1700137   9.3194393
  12.1472160  45.5417785   9.9204384  12.1333729  44.6458878   9.5836682
  12.8644588  45.5488449  10.5542670  13.9998290  45.9755125  11.9657512
  13.7416068  46.8972196  11.9641842  13.4683331  45.5785560  12.6557976
  11.5509056  44.4232165   5.1891954  11.6724967  43.4948812   5.3882842
  11.2611098  44.4370851   4.2770270  14.4200246  42.1087076   8.3258674
  14.4421943  42.1726409   7.3710654  14.8368305  41.2691584   8.5199180
  24.7983870  51.8442335   6.3637897  25.2415016  51.0949661   5.9657020
  23.9210381  51.8352472   5.9811629   5.5487461  50.2190478  15.7041313
   4.8069197  50.3673113  16.2905943   5.2280205  50.4798743  14.8408062
  21.8311075  55.8472382   3.3731826  22.3562399  56.1859655   2.6481146
  21.7433427  54.9119398   3.1894961  13.4931124  59.7606456  15.5021703
  13.8018250  59.5155603  16.3744402  14.2906606  59.9653094  15.0140573
  11.0350135  45.9364163  19.3981887  11.0838291  46.8126285  19.0159657
  11.5772649  45.3941556  18.8253530  21.5204981  56.4805286  18.6783024
  20.7300525  56.4629425  18.1387524  21.2838335  57.0193580  19.4332061
  21.6402856  53.3297752  15.9915753  21.6900861  53.1647760  16.9331275
  21.5316779  52.4625011  15.6013633  18.9306618  49.3128680  17.3075059
  19.8316481  49.1735145  17.0159057  19.0054593  49.4783135  18.2473237
  13.2649424  46.6895535  16.1528246  12.3952733  46.9829101  15.8810834
  13.5008904  47.2735980  16.8735509  23.1421053  55.7494694  16.2357774
  22.8505861  56.1124674  17.0721235  22.5293184  55.0361702  16.0571106
  24.3416735  53.3147574   8.7560344  25.1763626  53.7537378   8.9197905
  24.4775864  52.8386227   7.9368590  21.3908241  50.8727308  14.7037832
  21.8662363  51.0654955  13.8956684  20.4673806  50.9286494  14.4581216
  15.9688458  42.9075152  13.6693666  16.4870401  43.6436179  13.3440155
  15.6143590  43.2139145  14.5040425  16.2201052  39.3275435   9.1894563
  16.5002805  38.6598624   9.8154989  17.0051659  39.5204530   8.6769226
  20.0909910  47.7493069  12.9366138  21.0427333  47.8491166  12.9578362
  19.9213360  46.9571337  13.4464222  18.1124289  44.8348652  13.1225539
  17.5174222  45.1153664  12.4272027  17.8273986  45.3242553  13.8942280
  22.5697988  50.9699188  12.0508437  22.5374308  50.0315189  12.2368121
  23.1798611  51.0483225  11.3174262  22.7192476  47.7610232  12.0966721
  22.2031525  46.9768688  11.9096649  23.6032425  47.4328948  12.2613240
  20.3803203  41.5051247   8.0562533  20.1828024  41.1966335   8.9405865
  20.9902909  42.2312886   8.1860463  28.3874538  52.0315195  11.1914474
  29.1177926  51.7700483  11.7522178  27.7781483  51.2943917  11.2316542
  26.4689835  50.1723058  11.7888925  25.7422998  50.0379023  11.1805417
  26.0537122  50.4799886  12.5945643  14.2920011  53.8912987  19.5536298
  15.2123021  54.0691586  19.7476345  14.2569594  52.9469033  19.4015998
   7.2882084  51.8014022  12.1959080   7.5068094  52.7331130  12.2147113
   7.7007858  51.4421996  12.9813883  14.2086302  42.3082107   4.1834768
  13.3987030  41.9629192   4.5590014  14.8970718  41.9989651   4.7722380
  16.1376850  41.3860154   5.8059065  16.6907888  41.8055608   6.4649088
  16.3746936  40.4595902   5.8482021  12.1609949  47.3747228  21.5861829
  12.0606676  48.3241585  21.5173920  11.9431491  47.0465467  20.7137899
  19.5155657  43.4960679   5.3137729  18.9354326  44.1545483   4.9315781
  19.2491590  42.6738024   4.9025146  17.9659223  42.8965737   7.5159049
  18.4659002  43.0082272   6.7073368  18.6094831  42.5926790   8.1559858
  12.0241219  50.8044367  20.4026890  11.5408301  51.6044727  20.6090779
  12.1102158  50.8152311  19.4494334   7.9514557  54.6948901  12.4395324
   8.9057810  54.6632844  12.3725256   7.7527080  54.2339525  13.2545550
   8.5413939  53.2650017  15.0066122   9.3606828  53.7594096  15.0300959
   8.8150746  52.3481985  14.9783689  18.2980535  45.6560770   4.3694077
  17.4106390  45.9410420   4.1514272  18.7134524  45.4954533   3.5221354
  21.6495071  45.6807291   8.0848416  22.4255461  46.1703743   8.3573033
  20.9243205  46.1065345   8.5420286  24.0867630  46.3934910   9.1422357
  24.6812121  46.1530646   8.4315665  24.1594213  45.6742040   9.7695893
  18.2721559  51.1715306   4.5844367  18.2156760  51.6283857   3.7452000
  18.8249901  50.4105990   4.4067210  22.0826365  46.9605037   5.4094487
  21.8263299  46.5601673   6.2402695  21.4579233  47.6748831   5.2844626
  26.3938702  49.7001111   7.9165778  25.8338260  49.7694300   8.6897340
  25.7882206  49.5242095   7.1965274   3.7948853  47.5988151  15.7058319
   4.4407717  47.0887105  16.1945544   3.5866004  48.3356833  16.2801744
  16.3202245  54.6668999  21.2050459  17.1893405  54.8409651  20.8437094
  15.8408997  55.4863416  21.0826189  12.3152463  41.8628196   1.4582215
  12.3031133  42.8070036   1.6150486  13.2075885  41.6798341   1.1641676
  16.1304583  38.4570972   5.7128152  15.3636979  37.9029459   5.8584834
  16.5415288  38.5292841   6.5742303   8.1346344  44.7455768  19.8033333
   8.9977806  44.3892573  20.0136658   7.5611755  44.4069663  20.4908737
  27.9794721  66.3757625  10.6095734  28.6173131  66.2564372   9.9059074
  27.8615564  67.3238469  10.6683686  24.7884427  66.3285053  10.5457259
  24.4502939  66.2126117   9.6577793  25.6574195  65.9276218  10.5258265
  25.2704210  67.4819904  16.5043464  25.2592851  67.0872703  15.6323968
  25.4324850  66.7485977  17.0977236  22.9167678  67.6433865  12.0424008
  23.5131250  67.4189887  11.3280971  22.9742650  66.9018610  12.6449456
  27.5335989  64.1009078   7.6848942  28.3199079  63.6828502   7.3339359
  27.7974694  65.0055171   7.8530590  32.9344417  64.0384312   8.5881920
  33.6669588  63.4683529   8.8219750  32.1783772  63.6505912   9.0288426
  24.5520536  66.4611553   5.7845263  24.1878743  65.9342174   6.4958184
  25.4087652  66.0710022   5.6111748  30.4569837  57.7505886  13.0476529
  30.1253162  58.6201297  12.8237744  29.8615450  57.4342170  13.7270559
  30.3498500  62.4700972  10.1269879  29.4415378  62.4016380   9.8328640
  30.2986096  62.9472917  10.9551705  24.4239366  63.8890618  18.0704776
  23.6472700  64.4484538  18.0607641  25.0629929  64.3747401  18.5919647
  32.2160147  60.6717410  11.9047753  31.5734527  60.9649944  11.2587548
  31.7115075  60.5570331  12.7100950  22.6785738  66.6976071  17.6322743
  23.4200423  67.2361115  17.3557567  21.9722724  67.3242360  17.7894295
  28.1541078  68.8405211  16.2294905  28.5624434  68.3987622  15.4849537
  27.4318339  68.2657839  16.4829098  24.5072148  63.7777818  13.6028462
  25.3533343  64.2017232  13.7463111  24.4470786  63.1211442  14.2967025
  28.4769893  69.4006402   9.9847194  27.8478755  69.5652116   9.2823262
  28.0895555  69.8148012  10.7558158  27.6571593  61.4382187  15.2609635
  27.4132525  62.1924247  14.7243911  27.9331524  61.8167534  16.0956883
  29.6110056  67.9820799  13.9386901  29.8226951  68.6252559  13.2621282
  29.5639804  67.1483115  13.4708831  27.2136285  60.5938620  10.8423473
  26.3520764  60.8919873  11.1340211  27.2398720  60.8109018   9.9104506
  21.4147102  63.8515719  18.4338053  20.7845763  64.5332000  18.6673450
  21.3083190  63.7398801  17.4891192  30.7255884  70.8592754  12.1109258
  31.5473328  70.4572942  11.8291940  30.7218287  70.7560988  13.0625374
  14.9929777  63.7718006  11.7918968  15.2437816  64.6565015  12.0576544
  15.5289326  63.5922607  11.0194060  20.6927845  58.1536485  20.7963304
  20.2994790  57.6002684  21.4710949  21.5093985  58.4647063  21.1869822
  23.6095806  59.5694364  18.3883561  24.3505519  60.1701517  18.3088023
  23.8413729  58.8272002  17.8301604  18.7537144  64.7550731  16.6661791
  18.6390659  63.8535989  16.9668890  17.8981662  65.0014428  16.3146607
  27.5552969  55.5975467  12.6647843  27.2117238  56.4877109  12.5886953
  27.9231931  55.4077125  11.8017428  25.1050362  60.4333779   6.2305516
  24.2491959  60.0440629   6.0511155  25.5177314  60.5125740   5.3705302
  26.6349509  57.9680122  10.6297076  26.1314305  57.9310257   9.8164881
  26.9280116  58.8772865  10.6893733  22.8792395  58.0518852   9.6363258
  23.7445392  57.8561661   9.2769147  22.9469904  57.8229204  10.5632614
  30.7328832  67.8150414   9.7640059  30.0752507  68.5049675   9.8520188
  31.5369232  68.2046846  10.1074046  20.4854714  60.2821060   7.0079624
  21.0598466  60.0596241   6.2752817  21.0725696  60.3509754   7.7608226
  29.5434291  66.1694787   7.8144001  30.0566173  66.8024779   8.3165711
  30.1935515  65.5695982   7.4487361  22.7877382  57.1562309   5.7354694
  22.1341794  56.8411326   5.1111309  22.7457856  56.5338049   6.4614517
  26.0215122  63.6444242  10.0602342  25.1037683  63.8659189   9.9024030
  26.4375266  63.7190553   9.2014049  29.2529007  62.0792774   7.1723811
  28.5151764  61.5670160   7.5034054  29.5055781  61.6393156   6.3607088
  29.3540634  54.8569026   7.7665580  29.6599511  53.9966390   7.4791495
  30.0793239  55.4486646   7.5664574  23.6261714  65.1522819   8.2741771
  23.6810324  64.1996656   8.1984248  22.8152916  65.3082258   8.7583070
  27.1628286  64.2341703  14.8647044  27.5177673  64.4613177  15.7241510
  27.8100417  64.5660080  14.2424300  21.0568149  61.3418234  11.6493385
  21.6967528  61.2006994  10.9516349  20.2245679  61.0552748  11.2731987
  19.5321691  62.7256317  13.5965197  20.2044744  62.5173679  12.9477846
  18.7051477  62.5278403  13.1570429  33.7810952  69.4660367  13.1140530
  33.9746842  70.3706178  13.3599805  33.6811570  69.0067786  13.9479115
  25.4347263  59.3518258  15.6130857  24.7875178  60.0508207  15.5195334
  26.2048278  59.7854402  15.9807106  28.8426060  69.6167110  18.6881411
  28.6911567  69.3877661  17.7711494  28.8330740  70.5737711  18.7012756
  25.6111397  67.1899022  13.6727677  26.5403457  67.3410182  13.4996645
  25.1902427  67.2783043  12.8176324  19.9349188  65.9998920  14.3567634
  19.7968986  65.2679158  14.9579173  20.8454111  65.9107820  14.0751822
  22.5631488  65.7118879  13.8451313  23.2731107  65.0712071  13.8037932
  22.5200797  65.9631774  14.7677494  21.2760422  62.6984097  15.6646953
  20.7397779  62.2474835  16.3168549  20.6877131  62.8330006  14.9217417
  30.5535674  70.6125816  14.9971872  29.6662453  70.2751738  15.1198271
  31.1234225  69.8808847  15.2340638  17.0099544  61.8340105  12.7499947
  16.9257732  61.2265774  12.0150357  16.1882250  62.3249123  12.7509444
  27.1823258  60.3193668   8.1170142  27.6791957  59.5663630   7.7971213
  26.4110239  60.3557985   7.5513352  23.7658226  62.4611051   7.8441827
  23.3956014  61.9082091   8.5322733  24.2617319  61.8569185   7.2916827
  29.6242252  57.2863262  10.2649501  28.7105332  57.5167488  10.4331708
  30.0535354  57.3701706  11.1163534  29.3948711  65.4753154  12.7649395
  28.7420161  65.7229061  12.1101848  29.7729091  64.6617292  12.4311873
  25.4436284  66.2172965  19.2515432  24.7676921  66.1167094  19.9217808
  26.2663918  66.0612178  19.7151430  19.1623560  59.8715042  14.0894933
  19.2264886  60.7329873  13.6772331  19.0990680  59.2589043  13.3567292
  18.6375832  61.9438174  17.7367967  19.2647871  61.5615252  18.3505492
  17.7803751  61.7252376  18.1023660  18.9435622  61.8270600   9.6513871
  18.2222208  62.4406568   9.5121344  19.7328878  62.3628365   9.5730517
  21.7461936  59.1625027  15.9254523  22.2696338  59.4087323  16.6880832
  21.5274269  59.9945061  15.5057660  22.9514481  60.1038722  13.6104193
  22.6111301  59.3046535  14.0124873  22.2453487  60.4040433  13.0381026
  23.6030953  57.1888034  12.0631516  24.4257022  56.7148512  11.9410406
  23.8469016  57.9678518  12.5630202  21.1269531  63.8807155   9.8723495
  20.9814112  64.1947458  10.7647776  20.6494735  64.4992055   9.3194393
  22.9865914  60.8709703   9.9204384  22.9727483  59.9750796   9.5836682
  23.7038342  60.8780366  10.5542670  24.8392045  61.3047043  11.9657512
  24.5809823  62.2264114  11.9641842  24.3077085  60.9077477  12.6557976
  22.3902810  59.7524083   5.1891954  22.5118721  58.8240729   5.3882842
  22.1004853  59.7662769   4.2770270  25.2594001  57.4378993   8.3258674
  25.2815697  57.5018327   7.3710654  25.6762060  56.5983502   8.5199180
  16.3881215  65.5482395  15.7041313  15.6462951  65.6965031  16.2905943
  16.0673960  65.8090661  14.8408062  21.8743890  61.2656080  19.3981887
  21.9232045  62.1418203  19.0159657  22.4166404  60.7233473  18.8253530
  32.4796610  68.6589670  15.9915753  32.5294615  68.4939677  16.9331275
  32.3710534  67.7916929  15.6013633  29.7700373  64.6420598  17.3075059
  30.6710236  64.5027063  17.0159057  29.8448347  64.8075053  18.2473237
  24.1043178  62.0187453  16.1528246  23.2346488  62.3121019  15.8810834
  24.3402659  62.6027898  16.8735509  33.9814807  71.0786612  16.2357774
  33.6899616  71.4416592  17.0721235  33.3686939  70.3653620  16.0571106
  32.2301996  66.2019226  14.7037832  32.7056117  66.3946872  13.8956684
  31.3067561  66.2578412  14.4581216  26.8082212  58.2367070  13.6693666
  27.3264156  58.9728097  13.3440155  26.4537345  58.5431063  14.5040425
  27.0594806  54.6567352   9.1894563  27.3396560  53.9890541   9.8154989
  27.8445413  54.8496448   8.6769226  30.9303665  63.0784986  12.9366138
  31.8821087  63.1783084  12.9578362  30.7607115  62.2863255  13.4464222
  28.9518044  60.1640569  13.1225539  28.3567976  60.4445582  12.4272027
  28.6667741  60.6534470  13.8942280  33.4091742  66.2991106  12.0508437
  33.3768062  65.3607107  12.2368121  34.0192366  66.3775143  11.3174262
  33.5586231  63.0902149  12.0966721  33.0425279  62.3060606  11.9096649
  34.4426179  62.7620866  12.2613240  31.2196958  56.8343165   8.0562533
  31.0221779  56.5258253   8.9405865  31.8296663  57.5604804   8.1860463
  37.3083589  65.5014975  11.7888925  36.5816753  65.3670940  11.1805417
  36.8930876  65.8091804  12.5945643  25.1313766  69.2204905  19.5536298
  26.0516775  69.3983504  19.7476345  25.0963349  68.2760950  19.4015998
  25.0480056  57.6374025   4.1834768  24.2380784  57.2921110   4.5590014
  25.7364473  57.3281569   4.7722380  26.9770604  56.7152072   5.8059065
  27.5301643  57.1347525   6.4649088  27.2140691  55.7887820   5.8482021
  23.0003704  62.7039145  21.5861829  22.9000430  63.6533502  21.5173920
  22.7825246  62.3757384  20.7137899  30.3549411  58.8252597   5.3137729
  29.7748080  59.4837401   4.9315781  30.0885344  58.0029942   4.9025146
  28.8052978  58.2257655   7.5159049  29.3052756  58.3374189   6.7073368
  29.4488586  57.9218708   8.1559858  22.8634974  66.1336284  20.4026890
  22.3802055  66.9336644  20.6090779  22.9495913  66.1444229  19.4494334
  32.4888826  61.0099208   8.0848416  33.2649216  61.4995661   8.3573033
  31.7636960  61.4357263   8.5420286  34.9261384  61.7226828   9.1422357
  35.5205875  61.4822563   8.4315665  34.9987968  61.0033958   9.7695893
  14.6342607  62.9280069  15.7058319  15.2801471  62.4179023  16.1945544
  14.4259759  63.6648751  16.2801744  23.1546218  57.1920114   1.4582215
  23.1424888  58.1361953   1.6150486  24.0469640  57.0090259   1.1641676
  26.9698337  53.7862890   5.7128152  26.2030733  53.2321377   5.8584834
  27.3809042  53.8584759   6.5742303  18.9740098  60.0747686  19.8033333
  19.8371560  59.7184491  20.0136658  18.4005509  59.7361581  20.4908737
  14.9935228  34.3738677   4.9894598  14.5499082  33.5875055   4.6715502
  15.6552442  34.5617827   4.3238489  17.0916466  34.6541476   3.0175999
  17.0734942  35.4750358   2.5256268  18.0136386  34.5295552   3.2426140
  18.0032307  31.2937315   5.4126717  17.8517814  31.0647866   4.4956801
  17.9936987  32.2507916   5.4258062  19.7124514  34.3256437   3.4903199
  19.6537060  33.6415657   2.8233782  20.1144032  35.0675427   3.0383825
  19.7141921  32.2896021   1.7217179  18.8268700  31.9521943   1.8443578
  20.2840472  31.5579052   1.9585944  14.6042531  27.8943170   5.9760739
  13.9283168  27.7937299   6.6463114  15.4270164  27.7382383   6.4396736
  13.3465313  39.2010097   0.2118355  13.8983622  39.3641718   0.9767440
  13.6871507  39.7914535  -0.4601620  18.1976188  34.0271354   6.0667009
  18.7416092  34.6401313   5.5721964  17.6163033  34.5850933   6.5834022
  13.4931125  36.7668579   2.2267009  13.8018251  36.5217725   3.0989709
  14.2906607  36.9715217   1.7385880  21.5204982  33.4867409   5.4028331
  20.7300526  33.4691547   4.8632830  21.2838337  34.0255702   6.1577367
  21.6402857  30.3359875   2.7161059  21.6900862  30.1709882   3.6576582
  21.5316781  29.4687134   2.3258940  23.1421054  32.7556816   2.9603081
  22.8505862  33.1186797   3.7966542  22.5293185  32.0423825   2.7816413
  14.2920012  30.8975110   6.2781605  15.2123022  31.0753709   6.4721652
  14.2569596  29.9531155   6.1261304  16.3202246  31.6731121   7.9295766
  17.1893406  31.8471774   7.5682401  15.8408998  32.4925538   7.8071495
  27.9794722  43.3819747  -2.6658959  28.6173132  43.2626495  -3.3695619
  27.8615565  44.3300591  -2.6071007  24.7884428  43.3347175  -2.7297435
  24.4502940  43.2188240  -3.6176900  25.6574197  42.9338340  -2.7496429
  25.2704211  44.4882027   3.2288771  25.2592852  44.0934825   2.3569274
  25.4324851  43.7548100   3.8222542  21.9911473  47.2719139   2.1767955
  21.7001339  48.1764770   2.0614621  22.6268457  47.3135666   2.8912024
  22.9167679  44.6495987  -1.2330686  23.5131252  44.4252010  -1.9473723
  22.9742651  43.9080733  -0.6305238  27.5335991  41.1071201  -5.5905751
  28.3199080  40.6890624  -5.9415334  27.7974695  42.0117293  -5.4224103
  32.9344418  41.0446434  -4.6872773  33.6669590  40.4745651  -4.4534943
  32.1783773  40.6568035  -4.2466267  30.4569838  34.7568008  -0.2278164
  30.1253163  35.6263419  -0.4516949  29.8615452  34.4404292   0.4515866
  26.9501358  46.9580554  -0.8282252  26.6502081  47.8605593  -0.9366444
  26.6052417  46.6912738   0.0238901  30.3498501  39.4763095  -3.1484814
  29.4415379  39.4078503  -3.4426053  30.2986097  39.9535040  -2.3202989
  24.4239367  40.8952740   4.7950083  23.6472701  41.4546660   4.7852948
  25.0629930  41.3809523   5.3164953  32.2160148  37.6779533  -1.3706940
  31.5734528  37.9712066  -2.0167146  31.7115076  37.5632453  -0.5653744
  22.6785740  43.7038194   4.3568050  23.4200424  44.2423237   4.0802874
  21.9722725  44.3304482   4.5139602  28.1541079  45.8467334   2.9540212
  28.5624435  45.4049745   2.2094844  27.4318341  45.2719962   3.2074404
  24.5072149  40.7839941   0.3273768  25.3533344  41.2079354   0.4708417
  24.4470787  40.1273565   1.0212332  28.4769894  46.4068525  -3.2907500
  27.8478756  46.5714239  -3.9931432  28.0895556  46.8210134  -2.5196536
  27.6571595  38.4444309   1.9854942  27.4132526  39.1986370   1.4489218
  27.9331525  38.8229657   2.8202189  29.6110057  44.9882921   0.6632208
  29.8226953  45.6314681  -0.0133411  29.5639806  44.1545238   0.1954138
  27.2136286  37.6000742  -2.4331220  26.3520765  37.8981996  -2.1414483
  27.2398721  37.8171141  -3.3650188  20.9221937  45.6914414  -3.0877651
  21.4923294  46.1201683  -3.7260167  21.5130049  45.4096999  -2.3893466
  21.4147103  40.8577842   5.1583360  20.7845764  41.5394123   5.3918757
  21.3083191  40.7460923   4.2136498  30.7255885  47.8654877  -1.1645435
  31.5473329  47.4635064  -1.4462753  30.7218288  47.7623111  -0.2129319
  24.4912489  47.4138920   0.9915276  24.5556921  47.8759327   1.8273447
  23.7823413  46.7836285   1.1197585  20.6927846  35.1598608   7.5208611
  20.2994792  34.6064806   8.1956255  21.5093986  35.4709186   7.9115129
  23.6095807  36.5756487   5.1128868  24.3505520  37.1763640   5.0333330
  23.8413730  35.8334124   4.5546910  18.7537145  41.7612854   3.3907097
  18.6390660  40.8598111   3.6914196  17.8981663  42.0076551   3.0391914
  25.8328983  49.7030594   4.9894598  25.3892837  48.9166973   4.6715502
  26.4946196  49.8909745   4.3238489  27.9310221  49.9833394   3.0175999
  27.9128696  50.8042275   2.5256268  28.8530141  49.8587469   3.2426140
  24.3883275  47.4977524   3.8599508  24.9211612  46.7365812   3.6298816
  23.8597356  47.2051175   4.6023662  27.5552970  32.6037590  -0.6106851
  27.2117239  33.4939231  -0.6867740  27.9231933  32.4139247  -1.4737266
  30.7328834  44.8212537  -3.5114634  30.0752508  45.5111798  -3.4234505
  31.5369233  45.2108969  -3.1680648  29.5434293  43.1756909  -5.4610692
  30.0566174  43.8086901  -4.9588983  30.1935516  42.5758105  -5.8267332
  26.0215123  40.6506365  -3.2152352  25.1037685  40.8721312  -3.3730664
  26.4375267  40.7252675  -4.0740644  23.6261715  42.1584942  -5.0012922
  23.6810325  41.2058778  -5.0770445  22.8152917  42.3144381  -4.5171623
  27.1628287  41.2403826   1.5892351  27.5177675  41.4675299   2.4486817
  27.8100418  41.5722203   0.9669606  21.0568150  38.3480357  -1.6261308
  21.6967529  38.2069116  -2.3238345  20.2245681  38.0614870  -2.0022706
  26.6523298  50.0300883  -1.1613948  26.7060321  50.5991819  -0.3936232
  25.7838080  50.2002768  -1.5259911  19.5321692  39.7318439   0.3210503
  20.2044745  39.5235801  -0.3276848  18.7051478  39.5340525  -0.1184264
  33.7810953  46.4722490  -0.1614163  33.9746843  47.3768300   0.0845112
  33.6811571  46.0129909   0.6724422  25.4347264  36.3580380   2.3376164
  24.7875179  37.0570330   2.2440641  26.2048279  36.7916524   2.7052412
  28.8426062  46.6229232   5.4126717  28.6911568  46.3939784   4.4956801
  28.8330741  47.5799834   5.4258062  25.6111398  44.1961145   0.3972984
  26.5403458  44.3472305   0.2241951  25.1902428  44.2845166  -0.4578370
  24.4099730  48.2211810  -1.8328479  24.2710816  47.8530594  -0.9602540
  23.6214326  48.7359449  -2.0044521  25.9604945  47.5993412  -4.4439641
  25.6254778  47.5594182  -3.5481991  25.4608891  46.9338128  -4.9169231
  19.9349189  43.0061042   1.0812940  19.7968987  42.2741281   1.6824479
  20.8454113  42.9169942   0.7997128  22.5631490  42.7181002   0.5696620
  23.2731108  42.0774194   0.5283238  22.5200798  42.9693896   1.4922801
  30.5518268  49.6548355   3.4903199  30.4930815  48.9707575   2.8233782
  30.9537787  50.3967345   3.0383825  21.2760424  39.7046219   2.3892260
  20.7397781  39.2536958   3.0413856  20.6877132  39.8392128   1.6462724
  30.5535676  47.6187939   1.7217179  29.6662454  47.2813861   1.8443578
  31.1234227  46.8870970   1.9585944  17.0099545  38.8402227  -0.5254746
  16.9257734  38.2327897  -1.2604336  16.1882251  39.3311245  -0.5245250
  24.0836829  52.2789391  -1.3121578  24.0107001  53.0844363  -0.8002273
  23.6414222  52.4781357  -2.1373556  26.5435513  52.1776225   0.8436581
  27.2563485  52.8123690   0.7712482  26.0525541  52.2740091   0.0276583
  21.5947426  49.9270669   1.6642152  22.2956886  50.5607152   1.8171546
  21.1242541  50.2685400   0.9037791  29.6242254  34.2925384  -3.0105192
  28.7105333  34.5229611  -2.8422985  30.0535355  34.3763828  -2.1591160
  29.3948712  42.4815276  -0.5105298  28.7420162  42.7291184  -1.1652845
  29.7729092  41.6679414  -0.8442821  25.4436285  43.2235087   5.9760739
  24.7676922  43.1229217   6.6463114  26.2663919  43.0674301   6.4396736
  24.1859068  54.5302015   0.2118355  24.7377376  54.6933636   0.9767440
  24.5265261  55.1206452  -0.4601620  19.1623561  36.8777164   0.8140240
  19.2264888  37.7391995   0.4017637  19.0990681  36.2651166   0.0812598
  18.6375834  38.9500297   4.4613274  19.2647873  38.5677374   5.0750798
  17.7803753  38.7314499   4.8268967  29.0369942  49.3563272   6.0667009
  29.5809846  49.9693230   5.5721964  28.4556787  49.9142851   6.5834022
  29.3862364  50.2793010  -1.1738413  28.4392699  50.1598361  -1.2460086
  29.7345137  49.3915508  -1.0912151  21.7461937  36.1687149   2.6499829
  22.2696339  36.4149446   3.4126139  21.5274270  37.0007184   2.2302967
  22.9514482  37.1100844   0.3349500  22.6111302  36.3108657   0.7370180
  22.2453488  37.4102555  -0.2373667  23.6030954  34.1950157  -1.2123177
  24.4257023  33.7210635  -1.3344287  23.8469017  34.9740640  -0.7124491
  21.1269533  40.8869277  -3.4031199  20.9814113  41.2009580  -2.5106917
  20.6494736  41.5054178  -3.9560300  24.8392046  38.3109166  -1.3097182
  24.5809824  39.2326236  -1.3112851  24.3077087  37.9139600  -0.6196718
  16.3881217  42.5544518   2.4286619  15.6462953  42.7027153   3.0151250
  16.0673961  42.8152784   1.5653369  24.3324879  52.0960496   2.2267009
  24.6412006  51.8509643   3.0989709  25.1300361  52.3007135   1.7385880
  21.8743891  38.2718203   6.1227194  21.9232046  39.1480326   5.7404963
  22.4166405  37.7295596   5.5498837  32.3598737  48.8159326   5.4028331
  31.5694280  48.7983465   4.8632830  32.1232091  49.3547620   6.1577367
  32.4796612  45.6651793   2.7161059  32.5294617  45.5001800   3.6576582
  32.3710535  44.7979052   2.3258940  29.7700374  41.6482721   4.0320366
  30.6710237  41.5089185   3.7404364  29.8448349  41.8137175   4.9718543
  24.1043179  39.0249575   2.8773552  23.2346489  39.3183141   2.6056141
  24.3402660  39.6090020   3.5980816  33.9814809  48.0848734   2.9603081
  33.6899617  48.4478715   3.7966542  33.3686940  47.3715742   2.7816413
  32.2301997  43.2081349   1.4283139  32.7056118  43.4008995   0.6201990
  31.3067562  43.2640535   1.1826522  26.8082213  35.2429192   0.3938973
  27.3264157  35.9790219   0.0685461  26.4537346  35.5493186   1.2285732
  30.9303666  40.0847109  -0.3388556  31.8821089  40.1845206  -0.3176332
  30.7607116  39.2925377   0.1709529  28.9518045  37.1702692  -0.1529155
  28.3567977  37.4507705  -0.8482666  28.6667742  37.6596593   0.6187586
  33.4091744  43.3053229  -1.2246256  33.3768064  42.3669229  -1.0386572
  34.0192367  43.3837265  -1.9580431  33.5586232  40.0964272  -1.1787973
  33.0425281  39.3122729  -1.3658044  34.4426181  39.7682989  -1.0141453
  37.3083591  42.5077098  -1.4865768  36.5816754  42.3733063  -2.0949276
  36.8930877  42.8153927  -0.6809050  25.1313767  46.2267028   6.2781605
  26.0516776  46.4045627   6.4721652  25.0963350  45.2823073   6.1261304
  18.1275840  44.1368062  -1.0795614  18.3461849  45.0685170  -1.0607580
  18.5401613  43.7776037  -0.2940810  23.0003705  39.7101268   8.3107135
  22.9000432  40.6595625   8.2419226  22.7825247  39.3819507   7.4383205
  22.8634975  43.1398407   7.1272197  22.3802057  43.9398767   7.3336086
  22.9495914  43.1506352   6.1739641  18.7908312  47.0302942  -0.8359369
  19.7451566  46.9986884  -0.9029438  18.5920836  46.5693565  -0.0209143
  19.3807694  45.6004058   1.7311428  20.2000583  46.0948136   1.7546266
  19.6544502  44.6836026   1.7028996  32.4888827  38.0161331  -5.1906277
  33.2649217  38.5057783  -4.9181660  31.7636961  38.4419385  -4.7334407
  34.9261385  38.7288950  -4.1332336  35.5205876  38.4884686  -4.8439028
  34.9987969  38.0096081  -3.5058800  14.6342609  39.9342191   2.4303625
  15.2801472  39.4241145   2.9190851  14.4259760  40.6710873   3.0047051
  27.1596001  47.0023039   7.9295766  28.0287161  47.1763691   7.5682401
  26.6802752  47.8217456   7.8071495  18.9740100  37.0809809   6.5278640
  19.8371561  36.7246613   6.7381964  18.4005510  36.7423703   7.2154044
  35.2633122  56.2244658   4.7950083  34.4866456  56.7838578   4.7852948
  35.9023685  56.7101441   5.3164953  32.2540858  56.1869759   5.1583360
  31.6239518  56.8686040   5.3918757  32.1476946  56.0752841   4.2136498
  31.5321601  50.4890525   7.5208611  31.1388546  49.9356724   8.1956255
  32.3487741  50.8001104   7.9115129  34.4489561  51.9048404   5.1128868
  35.1899275  52.5055557   5.0333330  34.6807484  51.1626042   4.5546910
  29.5930900  57.0904772   3.3907097  29.4784415  56.1890029   3.6914196
  28.7375417  57.3368468   3.0391914  36.2741018  51.6872298   2.3376164
  35.6268933  52.3862248   2.2440641  37.0442034  52.1208442   2.7052412
  36.2830040  58.5527005   5.9760739  35.6070677  58.4521134   6.6463114
  37.1057673  58.3966219   6.4396736  30.0017316  52.2069082   0.8140240
  30.0658642  53.0683913   0.4017637  29.9384436  51.5943084   0.0812598
  29.4769588  54.2792215   4.4613274  30.1041627  53.8969292   5.0750798
  28.6197507  54.0606417   4.8268967  32.5855691  51.4979067   2.6499829
  33.1090093  51.7441363   3.4126139  32.3668025  52.3299102   2.2302967
  32.7137645  53.6010121   6.1227194  32.7625801  54.4772243   5.7404963
  33.2560160  53.0587514   5.5498837  34.9436934  54.3541493   2.8773552
  34.0740243  54.6475059   2.6056141  35.1796414  54.9381938   3.5980816
  33.8397459  55.0393186   8.3107135  33.7394186  55.9887543   8.2419226
  33.6219001  54.7111425   7.4383205  33.7028729  58.4690325   7.1272197
  33.2195811  59.2690685   7.3336086  33.7889668  58.4798269   6.1739641
  25.4736363  55.2634109   2.4303625  26.1195227  54.7533063   2.9190851
  25.2653514  56.0002791   3.0047051  29.8133854  52.4101726   6.5278640
  30.6765316  52.0538531   6.7381964  29.2399265  52.0715621   7.2154044
  36.2830041  35.5589127  -7.2993954  35.6070678  35.4583257  -6.6291579
  37.1057675  35.4028341  -6.8357957
  71.7466440  71.7466440  71.7466440 109.4712190 109.4712190 109.4712190
